<?xml version="1.0"?> 
<VTKFile type="UnstructuredGrid"> 
   <UnstructuredGrid> 
      <Piece NumberOfPoints="6000"  NumberOfCells="1500">  
          <Points>  
             <DataArray type="Float64" NumberOfComponents="3" format="ascii">   
-500.0   0.0   0.0
-450.0   0.0   0.0
-500.0   30.0   0.0
-500.0   0.0   16.666666666666668
-450.0   0.0   0.0
-450.0   30.0   0.0
-500.0   30.0   0.0
-450.0   30.0   16.666666666666668
-500.0   0.0   16.666666666666668
-500.0   30.0   16.666666666666668
-450.0   30.0   16.666666666666668
-500.0   30.0   0.0
-500.0   0.0   16.666666666666668
-450.0   30.0   16.666666666666668
-450.0   0.0   16.666666666666668
-450.0   0.0   0.0
-500.0   0.0   16.666666666666668
-450.0   30.0   16.666666666666668
-450.0   0.0   0.0
-500.0   30.0   0.0
-500.0   0.0   16.666666666666668
-450.0   0.0   16.666666666666668
-500.0   30.0   16.666666666666668
-500.0   0.0   33.333333333333336
-450.0   0.0   16.666666666666668
-450.0   30.0   16.666666666666668
-500.0   30.0   16.666666666666668
-450.0   30.0   33.333333333333336
-500.0   0.0   33.333333333333336
-500.0   30.0   33.333333333333336
-450.0   30.0   33.333333333333336
-500.0   30.0   16.666666666666668
-500.0   0.0   33.333333333333336
-450.0   30.0   33.333333333333336
-450.0   0.0   33.333333333333336
-450.0   0.0   16.666666666666668
-500.0   0.0   33.333333333333336
-450.0   30.0   33.333333333333336
-450.0   0.0   16.666666666666668
-500.0   30.0   16.666666666666668
-500.0   0.0   33.333333333333336
-450.0   0.0   33.333333333333336
-500.0   30.0   33.333333333333336
-500.0   0.0   50.0
-450.0   0.0   33.333333333333336
-450.0   30.0   33.333333333333336
-500.0   30.0   33.333333333333336
-450.0   30.0   50.0
-500.0   0.0   50.0
-500.0   30.0   50.0
-450.0   30.0   50.0
-500.0   30.0   33.333333333333336
-500.0   0.0   50.0
-450.0   30.0   50.0
-450.0   0.0   50.0
-450.0   0.0   33.333333333333336
-500.0   0.0   50.0
-450.0   30.0   50.0
-450.0   0.0   33.333333333333336
-500.0   30.0   33.333333333333336
-500.0   30.0   0.0
-450.0   30.0   0.0
-500.0   60.0   0.0
-500.0   30.0   16.666666666666668
-450.0   30.0   0.0
-450.0   60.0   0.0
-500.0   60.0   0.0
-450.0   60.0   16.666666666666668
-500.0   30.0   16.666666666666668
-500.0   60.0   16.666666666666668
-450.0   60.0   16.666666666666668
-500.0   60.0   0.0
-500.0   30.0   16.666666666666668
-450.0   60.0   16.666666666666668
-450.0   30.0   16.666666666666668
-450.0   30.0   0.0
-500.0   30.0   16.666666666666668
-450.0   60.0   16.666666666666668
-450.0   30.0   0.0
-500.0   60.0   0.0
-500.0   30.0   16.666666666666668
-450.0   30.0   16.666666666666668
-500.0   60.0   16.666666666666668
-500.0   30.0   33.333333333333336
-450.0   30.0   16.666666666666668
-450.0   60.0   16.666666666666668
-500.0   60.0   16.666666666666668
-450.0   60.0   33.333333333333336
-500.0   30.0   33.333333333333336
-500.0   60.0   33.333333333333336
-450.0   60.0   33.333333333333336
-500.0   60.0   16.666666666666668
-500.0   30.0   33.333333333333336
-450.0   60.0   33.333333333333336
-450.0   30.0   33.333333333333336
-450.0   30.0   16.666666666666668
-500.0   30.0   33.333333333333336
-450.0   60.0   33.333333333333336
-450.0   30.0   16.666666666666668
-500.0   60.0   16.666666666666668
-500.0   30.0   33.333333333333336
-450.0   30.0   33.333333333333336
-500.0   60.0   33.333333333333336
-500.0   30.0   50.0
-450.0   30.0   33.333333333333336
-450.0   60.0   33.333333333333336
-500.0   60.0   33.333333333333336
-450.0   60.0   50.0
-500.0   30.0   50.0
-500.0   60.0   50.0
-450.0   60.0   50.0
-500.0   60.0   33.333333333333336
-500.0   30.0   50.0
-450.0   60.0   50.0
-450.0   30.0   50.0
-450.0   30.0   33.333333333333336
-500.0   30.0   50.0
-450.0   60.0   50.0
-450.0   30.0   33.333333333333336
-500.0   60.0   33.333333333333336
-500.0   60.0   0.0
-450.0   60.0   0.0
-500.0   90.0   0.0
-500.0   60.0   16.666666666666668
-450.0   60.0   0.0
-450.0   90.0   0.0
-500.0   90.0   0.0
-450.0   90.0   16.666666666666668
-500.0   60.0   16.666666666666668
-500.0   90.0   16.666666666666668
-450.0   90.0   16.666666666666668
-500.0   90.0   0.0
-500.0   60.0   16.666666666666668
-450.0   90.0   16.666666666666668
-450.0   60.0   16.666666666666668
-450.0   60.0   0.0
-500.0   60.0   16.666666666666668
-450.0   90.0   16.666666666666668
-450.0   60.0   0.0
-500.0   90.0   0.0
-500.0   60.0   16.666666666666668
-450.0   60.0   16.666666666666668
-500.0   90.0   16.666666666666668
-500.0   60.0   33.333333333333336
-450.0   60.0   16.666666666666668
-450.0   90.0   16.666666666666668
-500.0   90.0   16.666666666666668
-450.0   90.0   33.333333333333336
-500.0   60.0   33.333333333333336
-500.0   90.0   33.333333333333336
-450.0   90.0   33.333333333333336
-500.0   90.0   16.666666666666668
-500.0   60.0   33.333333333333336
-450.0   90.0   33.333333333333336
-450.0   60.0   33.333333333333336
-450.0   60.0   16.666666666666668
-500.0   60.0   33.333333333333336
-450.0   90.0   33.333333333333336
-450.0   60.0   16.666666666666668
-500.0   90.0   16.666666666666668
-500.0   60.0   33.333333333333336
-450.0   60.0   33.333333333333336
-500.0   90.0   33.333333333333336
-500.0   60.0   50.0
-450.0   60.0   33.333333333333336
-450.0   90.0   33.333333333333336
-500.0   90.0   33.333333333333336
-450.0   90.0   50.0
-500.0   60.0   50.0
-500.0   90.0   50.0
-450.0   90.0   50.0
-500.0   90.0   33.333333333333336
-500.0   60.0   50.0
-450.0   90.0   50.0
-450.0   60.0   50.0
-450.0   60.0   33.333333333333336
-500.0   60.0   50.0
-450.0   90.0   50.0
-450.0   60.0   33.333333333333336
-500.0   90.0   33.333333333333336
-500.0   90.0   0.0
-450.0   90.0   0.0
-500.0   120.0   0.0
-500.0   90.0   16.666666666666668
-450.0   90.0   0.0
-450.0   120.0   0.0
-500.0   120.0   0.0
-450.0   120.0   16.666666666666668
-500.0   90.0   16.666666666666668
-500.0   120.0   16.666666666666668
-450.0   120.0   16.666666666666668
-500.0   120.0   0.0
-500.0   90.0   16.666666666666668
-450.0   120.0   16.666666666666668
-450.0   90.0   16.666666666666668
-450.0   90.0   0.0
-500.0   90.0   16.666666666666668
-450.0   120.0   16.666666666666668
-450.0   90.0   0.0
-500.0   120.0   0.0
-500.0   90.0   16.666666666666668
-450.0   90.0   16.666666666666668
-500.0   120.0   16.666666666666668
-500.0   90.0   33.333333333333336
-450.0   90.0   16.666666666666668
-450.0   120.0   16.666666666666668
-500.0   120.0   16.666666666666668
-450.0   120.0   33.333333333333336
-500.0   90.0   33.333333333333336
-500.0   120.0   33.333333333333336
-450.0   120.0   33.333333333333336
-500.0   120.0   16.666666666666668
-500.0   90.0   33.333333333333336
-450.0   120.0   33.333333333333336
-450.0   90.0   33.333333333333336
-450.0   90.0   16.666666666666668
-500.0   90.0   33.333333333333336
-450.0   120.0   33.333333333333336
-450.0   90.0   16.666666666666668
-500.0   120.0   16.666666666666668
-500.0   90.0   33.333333333333336
-450.0   90.0   33.333333333333336
-500.0   120.0   33.333333333333336
-500.0   90.0   50.0
-450.0   90.0   33.333333333333336
-450.0   120.0   33.333333333333336
-500.0   120.0   33.333333333333336
-450.0   120.0   50.0
-500.0   90.0   50.0
-500.0   120.0   50.0
-450.0   120.0   50.0
-500.0   120.0   33.333333333333336
-500.0   90.0   50.0
-450.0   120.0   50.0
-450.0   90.0   50.0
-450.0   90.0   33.333333333333336
-500.0   90.0   50.0
-450.0   120.0   50.0
-450.0   90.0   33.333333333333336
-500.0   120.0   33.333333333333336
-500.0   120.0   0.0
-450.0   120.0   0.0
-500.0   150.0   0.0
-500.0   120.0   16.666666666666668
-450.0   120.0   0.0
-450.0   150.0   0.0
-500.0   150.0   0.0
-450.0   150.0   16.666666666666668
-500.0   120.0   16.666666666666668
-500.0   150.0   16.666666666666668
-450.0   150.0   16.666666666666668
-500.0   150.0   0.0
-500.0   120.0   16.666666666666668
-450.0   150.0   16.666666666666668
-450.0   120.0   16.666666666666668
-450.0   120.0   0.0
-500.0   120.0   16.666666666666668
-450.0   150.0   16.666666666666668
-450.0   120.0   0.0
-500.0   150.0   0.0
-500.0   120.0   16.666666666666668
-450.0   120.0   16.666666666666668
-500.0   150.0   16.666666666666668
-500.0   120.0   33.333333333333336
-450.0   120.0   16.666666666666668
-450.0   150.0   16.666666666666668
-500.0   150.0   16.666666666666668
-450.0   150.0   33.333333333333336
-500.0   120.0   33.333333333333336
-500.0   150.0   33.333333333333336
-450.0   150.0   33.333333333333336
-500.0   150.0   16.666666666666668
-500.0   120.0   33.333333333333336
-450.0   150.0   33.333333333333336
-450.0   120.0   33.333333333333336
-450.0   120.0   16.666666666666668
-500.0   120.0   33.333333333333336
-450.0   150.0   33.333333333333336
-450.0   120.0   16.666666666666668
-500.0   150.0   16.666666666666668
-500.0   120.0   33.333333333333336
-450.0   120.0   33.333333333333336
-500.0   150.0   33.333333333333336
-500.0   120.0   50.0
-450.0   120.0   33.333333333333336
-450.0   150.0   33.333333333333336
-500.0   150.0   33.333333333333336
-450.0   150.0   50.0
-500.0   120.0   50.0
-500.0   150.0   50.0
-450.0   150.0   50.0
-500.0   150.0   33.333333333333336
-500.0   120.0   50.0
-450.0   150.0   50.0
-450.0   120.0   50.0
-450.0   120.0   33.333333333333336
-500.0   120.0   50.0
-450.0   150.0   50.0
-450.0   120.0   33.333333333333336
-500.0   150.0   33.333333333333336
-450.0   0.0   0.0
-400.0   0.0   0.0
-450.0   30.0   0.0
-450.0   0.0   16.666666666666668
-400.0   0.0   0.0
-400.0   30.0   0.0
-450.0   30.0   0.0
-400.0   30.0   16.666666666666668
-450.0   0.0   16.666666666666668
-450.0   30.0   16.666666666666668
-400.0   30.0   16.666666666666668
-450.0   30.0   0.0
-450.0   0.0   16.666666666666668
-400.0   30.0   16.666666666666668
-400.0   0.0   16.666666666666668
-400.0   0.0   0.0
-450.0   0.0   16.666666666666668
-400.0   30.0   16.666666666666668
-400.0   0.0   0.0
-450.0   30.0   0.0
-450.0   0.0   16.666666666666668
-400.0   0.0   16.666666666666668
-450.0   30.0   16.666666666666668
[...]
          <PointData>  
             <DataArray type="Float64" NumberOfComponents="3" Name="Strains" format="ascii">   
-8.811470777282638e-05   0.0   -5.7847620113453564e-05
-8.811470777282638e-05   0.0   -5.7847620113453564e-05
-8.811470777282638e-05   0.0   -5.7847620113453564e-05
-8.811470777282638e-05   0.0   -5.7847620113453564e-05
-5.606733686610035e-05   9.759060494663802e-06   1.4201010278879698e-06
-5.606733686610035e-05   9.759060494663802e-06   1.4201010278879698e-06
-5.606733686610035e-05   9.759060494663802e-06   1.4201010278879698e-06
-5.606733686610035e-05   9.759060494663802e-06   1.4201010278879698e-06
-5.4957450301111194e-05   0.0   -5.459908309714224e-05
-5.4957450301111194e-05   0.0   -5.459908309714224e-05
-5.4957450301111194e-05   0.0   -5.459908309714224e-05
-5.4957450301111194e-05   0.0   -5.459908309714224e-05
-9.221490587969187e-05   1.1712495372744397e-05   4.6917897684580693e-07
-9.221490587969187e-05   1.1712495372744397e-05   4.6917897684580693e-07
-9.221490587969187e-05   1.1712495372744397e-05   4.6917897684580693e-07
-9.221490587969187e-05   1.1712495372744397e-05   4.6917897684580693e-07
-7.153607903696866e-05   2.707114180259431e-06   -2.859230371220184e-05
-7.153607903696866e-05   2.707114180259431e-06   -2.859230371220184e-05
-7.153607903696866e-05   2.707114180259431e-06   -2.859230371220184e-05
-7.153607903696866e-05   2.707114180259431e-06   -2.859230371220184e-05
-9.221490587969203e-05   0.0   -6.162658032078888e-05
-9.221490587969203e-05   0.0   -6.162658032078888e-05
-9.221490587969203e-05   0.0   -6.162658032078888e-05
-9.221490587969203e-05   0.0   -6.162658032078888e-05
-5.4957450301111194e-05   1.171249537274441e-05   7.496676200492475e-06
-5.4957450301111194e-05   1.171249537274441e-05   7.496676200492475e-06
-5.4957450301111194e-05   1.171249537274441e-05   7.496676200492475e-06
-5.4957450301111194e-05   1.171249537274441e-05   7.496676200492475e-06
-5.511129806235497e-05   0.0   -5.5935169433820034e-05
-5.511129806235497e-05   0.0   -5.5935169433820034e-05
-5.511129806235497e-05   0.0   -5.5935169433820034e-05
-5.511129806235497e-05   0.0   -5.5935169433820034e-05
-9.509391057787972e-05   1.254847966888697e-05   3.173430290722627e-06
-9.509391057787972e-05   1.254847966888697e-05   3.173430290722627e-06
-9.509391057787972e-05   1.254847966888697e-05   3.173430290722627e-06
-9.509391057787972e-05   1.254847966888697e-05   3.173430290722627e-06
-7.366310197102337e-05   4.7428424058073724e-06   -2.786120169619017e-05
-7.366310197102337e-05   4.7428424058073724e-06   -2.786120169619017e-05
-7.366310197102337e-05   4.7428424058073724e-06   -2.786120169619017e-05
-7.366310197102337e-05   4.7428424058073724e-06   -2.786120169619017e-05
-9.509391057787988e-05   0.0   -6.346425723515223e-05
-9.509391057787988e-05   0.0   -6.346425723515223e-05
-9.509391057787988e-05   0.0   -6.346425723515223e-05
-9.509391057787988e-05   0.0   -6.346425723515223e-05
-5.511129806235497e-05   1.2548479668886983e-05   1.0702518092054806e-05
-5.511129806235497e-05   1.2548479668886983e-05   1.0702518092054806e-05
-5.511129806235497e-05   1.2548479668886983e-05   1.0702518092054806e-05
-5.511129806235497e-05   1.2548479668886983e-05   1.0702518092054806e-05
-5.50810430236621e-05   0.0   -5.6278670412889725e-05
-5.50810430236621e-05   0.0   -5.6278670412889725e-05
-5.50810430236621e-05   0.0   -5.6278670412889725e-05
-5.50810430236621e-05   0.0   -5.6278670412889725e-05
-0.00010129721312654418   1.4296246229896119e-05   1.2170532020642968e-05
-0.00010129721312654418   1.4296246229896119e-05   1.2170532020642968e-05
-0.00010129721312654418   1.4296246229896119e-05   1.2170532020642968e-05
-0.00010129721312654418   1.4296246229896119e-05   1.2170532020642968e-05
-7.508747680077086e-05   5.987989018552082e-06   -2.6527407528839415e-05
-7.508747680077086e-05   5.987989018552082e-06   -2.6527407528839415e-05
-7.508747680077086e-05   5.987989018552082e-06   -2.6527407528839415e-05
-7.508747680077086e-05   5.987989018552082e-06   -2.6527407528839415e-05
-5.606733686610045e-05   0.0   -5.1992183816655276e-05
-5.606733686610045e-05   0.0   -5.1992183816655276e-05
-5.606733686610045e-05   0.0   -5.1992183816655276e-05
-5.606733686610045e-05   0.0   -5.1992183816655276e-05
-2.5534689006917845e-05   3.5787844187876275e-06   1.0428332665882785e-06
-2.5534689006917845e-05   3.5787844187876275e-06   1.0428332665882785e-06
-2.5534689006917845e-05   3.5787844187876275e-06   1.0428332665882785e-06
-2.5534689006917845e-05   3.5787844187876275e-06   1.0428332665882785e-06
-2.455778962996567e-05   0.0   -5.1541568491512694e-05
-2.455778962996567e-05   0.0   -5.1541568491512694e-05
-2.455778962996567e-05   0.0   -5.1541568491512694e-05
-2.455778962996567e-05   0.0   -5.1541568491512694e-05
-5.4957450301111194e-05   5.095857676049232e-06   -3.932981978566375e-06
-5.4957450301111194e-05   5.095857676049232e-06   -3.932981978566375e-06
-5.4957450301111194e-05   5.095857676049232e-06   -3.932981978566375e-06
-5.4957450301111194e-05   5.095857676049232e-06   -3.932981978566375e-06
-4.031256324803299e-05   3.755127709521527e-07   -2.5508920123971607e-05
-4.031256324803299e-05   3.755127709521527e-07   -2.5508920123971607e-05
-4.031256324803299e-05   3.755127709521527e-07   -2.5508920123971607e-05
-4.031256324803299e-05   3.755127709521527e-07   -2.5508920123971607e-05
-5.4957450301111146e-05   0.0   -5.4599083097142194e-05
-5.4957450301111146e-05   0.0   -5.4599083097142194e-05
-5.4957450301111146e-05   0.0   -5.4599083097142194e-05
-5.4957450301111146e-05   0.0   -5.4599083097142194e-05
-2.455778962996567e-05   5.095857676049232e-06   -8.754673729368347e-07
-2.455778962996567e-05   5.095857676049232e-06   -8.754673729368347e-07
-2.455778962996567e-05   5.095857676049232e-06   -8.754673729368347e-07
-2.455778962996567e-05   5.095857676049232e-06   -8.754673729368347e-07
-2.4008666051394134e-05   0.0   -5.218831806579254e-05
-2.4008666051394134e-05   0.0   -5.218831806579254e-05
-2.4008666051394134e-05   0.0   -5.218831806579254e-05
-2.4008666051394134e-05   0.0   -5.218831806579254e-05
-5.511129806235497e-05   6.244752280045837e-06   -4.097449415551985e-06
-5.511129806235497e-05   6.244752280045837e-06   -4.097449415551985e-06
-5.511129806235497e-05   6.244752280045837e-06   -4.097449415551985e-06
-5.511129806235497e-05   6.244752280045837e-06   -4.097449415551985e-06
-3.948305817625258e-05   2.0089708594580856e-06   -2.760304704003642e-05
-3.948305817625258e-05   2.0089708594580856e-06   -2.760304704003642e-05
-3.948305817625258e-05   2.0089708594580856e-06   -2.760304704003642e-05
-3.948305817625258e-05   2.0089708594580856e-06   -2.760304704003642e-05
-5.511129806235497e-05   0.0   -5.5935169433820034e-05
-5.511129806235497e-05   0.0   -5.5935169433820034e-05
-5.511129806235497e-05   0.0   -5.5935169433820034e-05
-5.511129806235497e-05   0.0   -5.5935169433820034e-05
-2.4008666051394134e-05   6.244752280045837e-06   -3.505980475244954e-07
-2.4008666051394134e-05   6.244752280045837e-06   -3.505980475244954e-07
-2.4008666051394134e-05   6.244752280045837e-06   -3.505980475244954e-07
-2.4008666051394134e-05   6.244752280045837e-06   -3.505980475244954e-07
-2.3508457373624996e-05   0.0   -5.191860902473605e-05
-2.3508457373624996e-05   0.0   -5.191860902473605e-05
-2.3508457373624996e-05   0.0   -5.191860902473605e-05
-2.3508457373624996e-05   0.0   -5.191860902473605e-05
-5.5081043023661954e-05   7.26676898025604e-06   -3.65769432949453e-06
-5.5081043023661954e-05   7.26676898025604e-06   -3.65769432949453e-06
-5.5081043023661954e-05   7.26676898025604e-06   -3.65769432949453e-06
-5.5081043023661954e-05   7.26676898025604e-06   -3.65769432949453e-06
-3.930987771798996e-05   3.3471336742366175e-06   -2.7591188655336393e-05
-3.930987771798996e-05   3.3471336742366175e-06   -2.7591188655336393e-05
-3.930987771798996e-05   3.3471336742366175e-06   -2.7591188655336393e-05
-3.930987771798996e-05   3.3471336742366175e-06   -2.7591188655336393e-05
-2.553468900691789e-05   0.0   -4.984491316538269e-05
-2.553468900691789e-05   0.0   -4.984491316538269e-05
-2.553468900691789e-05   0.0   -4.984491316538269e-05
-2.553468900691789e-05   0.0   -4.984491316538269e-05
3.3119515204481496e-06   -4.588374977384786e-07   -2.0424814517490135e-06
3.3119515204481496e-06   -4.588374977384786e-07   -2.0424814517490135e-06
3.3119515204481496e-06   -4.588374977384786e-07   -2.0424814517490135e-06
3.3119515204481496e-06   -4.588374977384786e-07   -2.0424814517490135e-06
3.9360341503918905e-06   0.0   -5.0999424514457614e-05
3.9360341503918905e-06   0.0   -5.0999424514457614e-05
3.9360341503918905e-06   0.0   -5.0999424514457614e-05
3.9360341503918905e-06   0.0   -5.0999424514457614e-05
-2.455778962996567e-05   9.035732950915087e-07   -4.051862190916744e-06
-2.455778962996567e-05   9.035732950915087e-07   -4.051862190916744e-06
-2.455778962996567e-05   9.035732950915087e-07   -4.051862190916744e-06
-2.455778962996567e-05   9.035732950915087e-07   -4.051862190916744e-06
-1.0799327428262974e-05   -9.620927908959135e-07   -2.5863232875495356e-05
-1.0799327428262974e-05   -9.620927908959135e-07   -2.5863232875495356e-05
-1.0799327428262974e-05   -9.620927908959135e-07   -2.5863232875495356e-05
-1.0799327428262974e-05   -9.620927908959135e-07   -2.5863232875495356e-05
-2.455778962996567e-05   0.0   -5.1541568491512694e-05
-2.455778962996567e-05   0.0   -5.1541568491512694e-05
-2.455778962996567e-05   0.0   -5.1541568491512694e-05
-2.455778962996567e-05   0.0   -5.1541568491512694e-05
3.936034150391897e-06   9.035732950915087e-07   -3.5097182138618327e-06
3.936034150391897e-06   9.035732950915087e-07   -3.5097182138618327e-06
3.936034150391897e-06   9.035732950915087e-07   -3.5097182138618327e-06
3.936034150391897e-06   9.035732950915087e-07   -3.5097182138618327e-06
4.4287506609085724e-06   0.0   -5.0926374449466354e-05
4.4287506609085724e-06   0.0   -5.0926374449466354e-05
4.4287506609085724e-06   0.0   -5.0926374449466354e-05
4.4287506609085724e-06   0.0   -5.0926374449466354e-05
-2.4008666051394093e-05   2.1032393605434878e-06   -4.7926235452880054e-06
-2.4008666051394093e-05   2.1032393605434878e-06   -4.7926235452880054e-06
-2.4008666051394093e-05   2.1032393605434878e-06   -4.7926235452880054e-06
-2.4008666051394093e-05   2.1032393605434878e-06   -4.7926235452880054e-06
-1.0064519484528545e-05   5.126617017052067e-07   -2.7078521228094344e-05
-1.0064519484528545e-05   5.126617017052067e-07   -2.7078521228094344e-05
-1.0064519484528545e-05   5.126617017052067e-07   -2.7078521228094344e-05
-1.0064519484528545e-05   5.126617017052067e-07   -2.7078521228094344e-05
-2.4008666051394134e-05   0.0   -5.218831806579254e-05
-2.4008666051394134e-05   0.0   -5.218831806579254e-05
-2.4008666051394134e-05   0.0   -5.218831806579254e-05
-2.4008666051394134e-05   0.0   -5.218831806579254e-05
4.42875066090858e-06   2.1032393605434878e-06   -3.530679928961928e-06
4.42875066090858e-06   2.1032393605434878e-06   -3.530679928961928e-06
4.42875066090858e-06   2.1032393605434878e-06   -3.530679928961928e-06
4.42875066090858e-06   2.1032393605434878e-06   -3.530679928961928e-06
5.091323994773304e-06   0.0   -4.982299471603141e-05
5.091323994773304e-06   0.0   -4.982299471603141e-05
5.091323994773304e-06   0.0   -4.982299471603141e-05
5.091323994773304e-06   0.0   -4.982299471603141e-05
-2.3508457373624975e-05   3.492690514507647e-06   -4.252306744072213e-06
-2.3508457373624975e-05   3.492690514507647e-06   -4.252306744072213e-06
-2.3508457373624975e-05   3.492690514507647e-06   -4.252306744072213e-06
-2.3508457373624975e-05   3.492690514507647e-06   -4.252306744072213e-06
-9.458671028310394e-06   1.9711027914675293e-06   -2.6755664685772413e-05
-9.458671028310394e-06   1.9711027914675293e-06   -2.6755664685772413e-05
-9.458671028310394e-06   1.9711027914675293e-06   -2.6755664685772413e-05
-9.458671028310394e-06   1.9711027914675293e-06   -2.6755664685772413e-05
3.311951520448155e-06   0.0   -5.012021566402579e-05
3.311951520448155e-06   0.0   -5.012021566402579e-05
3.311951520448155e-06   0.0   -5.012021566402579e-05
3.311951520448155e-06   0.0   -5.012021566402579e-05
3.4625514903545746e-05   -4.061225247405486e-06   -3.6767850730640226e-07
3.4625514903545746e-05   -4.061225247405486e-06   -3.6767850730640226e-07
3.4625514903545746e-05   -4.061225247405486e-06   -3.6767850730640226e-07
3.4625514903545746e-05   -4.061225247405486e-06   -3.6767850730640226e-07
3.468799026798465e-05   0.0   -5.283620722424028e-05
3.468799026798465e-05   0.0   -5.283620722424028e-05
3.468799026798465e-05   0.0   -5.283620722424028e-05
3.468799026798465e-05   0.0   -5.283620722424028e-05
3.936034150391904e-06   -3.0613045163041302e-06   2.538356815301132e-07
3.936034150391904e-06   -3.0613045163041302e-06   2.538356815301132e-07
3.936034150391904e-06   -3.0613045163041302e-06   2.538356815301132e-07
3.936034150391904e-06   -3.0613045163041302e-06   2.538356815301132e-07
1.8999970894216405e-05   -2.2633263001787393e-06   -2.5331512487852603e-05
1.8999970894216405e-05   -2.2633263001787393e-06   -2.5331512487852603e-05
1.8999970894216405e-05   -2.2633263001787393e-06   -2.5331512487852603e-05
1.8999970894216405e-05   -2.2633263001787393e-06   -2.5331512487852603e-05
3.936034150391904e-06   0.0   -5.099942451445779e-05
3.936034150391904e-06   0.0   -5.099942451445779e-05
3.936034150391904e-06   0.0   -5.099942451445779e-05
3.936034150391904e-06   0.0   -5.099942451445779e-05
3.468799026798465e-05   -3.0613045163041302e-06   -1.5829470282523672e-06
3.468799026798465e-05   -3.0613045163041302e-06   -1.5829470282523672e-06
3.468799026798465e-05   -3.0613045163041302e-06   -1.5829470282523672e-06
3.468799026798465e-05   -3.0613045163041302e-06   -1.5829470282523672e-06
3.45402068699773e-05   0.0   -5.20817326204885e-05
3.45402068699773e-05   0.0   -5.20817326204885e-05
3.45402068699773e-05   0.0   -5.20817326204885e-05
3.45402068699773e-05   0.0   -5.20817326204885e-05
4.42875066090858e-06   -1.925596951703434e-06   -7.406141010185911e-07
4.42875066090858e-06   -1.925596951703434e-06   -7.406141010185911e-07
4.42875066090858e-06   -1.925596951703434e-06   -7.406141010185911e-07
4.42875066090858e-06   -1.925596951703434e-06   -7.406141010185911e-07
1.9238120510184603e-05   -9.019234216922579e-07   -2.6037101301151964e-05
1.9238120510184603e-05   -9.019234216922579e-07   -2.6037101301151964e-05
1.9238120510184603e-05   -9.019234216922579e-07   -2.6037101301151964e-05
1.9238120510184603e-05   -9.019234216922579e-07   -2.6037101301151964e-05
4.428750660908576e-06   0.0   -5.09263744494664e-05
4.428750660908576e-06   0.0   -5.09263744494664e-05
4.428750660908576e-06   0.0   -5.09263744494664e-05
4.428750660908576e-06   0.0   -5.09263744494664e-05
3.45402068699773e-05   -1.925596951703434e-06   -1.8959722720406435e-06
3.45402068699773e-05   -1.925596951703434e-06   -1.8959722720406435e-06
3.45402068699773e-05   -1.925596951703434e-06   -1.8959722720406435e-06
3.45402068699773e-05   -1.925596951703434e-06   -1.8959722720406435e-06
3.5209896445074105e-05   0.0   -5.006269898399751e-05
3.5209896445074105e-05   0.0   -5.006269898399751e-05
3.5209896445074105e-05   0.0   -5.006269898399751e-05
3.5209896445074105e-05   0.0   -5.006269898399751e-05
5.091323994773313e-06   -3.99507113276685e-07   3.746260344698136e-07
5.091323994773313e-06   -3.99507113276685e-07   3.746260344698136e-07
5.091323994773313e-06   -3.99507113276685e-07   3.746260344698136e-07
5.091323994773313e-06   -3.99507113276685e-07   3.746260344698136e-07
1.981932355299133e-05   7.197295545574497e-07   -2.4843581896594e-05
1.981932355299133e-05   7.197295545574497e-07   -2.4843581896594e-05
1.981932355299133e-05   7.197295545574497e-07   -2.4843581896594e-05
1.981932355299133e-05   7.197295545574497e-07   -2.4843581896594e-05
3.4625514903545746e-05   0.0   -5.2556950812469085e-05
3.4625514903545746e-05   0.0   -5.2556950812469085e-05
3.4625514903545746e-05   0.0   -5.2556950812469085e-05
3.4625514903545746e-05   0.0   -5.2556950812469085e-05
7.817683139686271e-05   -1.0295796335177388e-05   1.3851098875286512e-05
7.817683139686271e-05   -1.0295796335177388e-05   1.3851098875286512e-05
7.817683139686271e-05   -1.0295796335177388e-05   1.3851098875286512e-05
7.817683139686271e-05   -1.0295796335177388e-05   1.3851098875286512e-05
7.342183676005332e-05   0.0   -5.8091970913343847e-05
7.342183676005332e-05   0.0   -5.8091970913343847e-05
7.342183676005332e-05   0.0   -5.8091970913343847e-05
7.342183676005332e-05   0.0   -5.8091970913343847e-05
3.468799026798465e-05   -8.759606148505956e-06   1.1720203595874178e-05
3.468799026798465e-05   -8.759606148505956e-06   1.1720203595874178e-05
3.468799026798465e-05   -8.759606148505956e-06   1.1720203595874178e-05
3.468799026798465e-05   -8.759606148505956e-06   1.1720203595874178e-05
5.4023675831799535e-05   -4.612516750728975e-06   -2.2994192649150122e-05
5.4023675831799535e-05   -4.612516750728975e-06   -2.2994192649150122e-05
5.4023675831799535e-05   -4.612516750728975e-06   -2.2994192649150122e-05
5.4023675831799535e-05   -4.612516750728975e-06   -2.2994192649150122e-05
3.4687990267984626e-05   0.0   -5.283620722424023e-05
3.4687990267984626e-05   0.0   -5.283620722424023e-05
3.4687990267984626e-05   0.0   -5.283620722424023e-05
3.4687990267984626e-05   0.0   -5.283620722424023e-05
7.342183676005308e-05   -8.759606148505916e-06   6.4644399067705815e-06
7.342183676005308e-05   -8.759606148505916e-06   6.4644399067705815e-06
7.342183676005308e-05   -8.759606148505916e-06   6.4644399067705815e-06
7.342183676005308e-05   -8.759606148505916e-06   6.4644399067705815e-06
7.122947103040665e-05   0.0   -5.6884215599555644e-05
7.122947103040665e-05   0.0   -5.6884215599555644e-05
7.122947103040665e-05   0.0   -5.6884215599555644e-05
7.122947103040665e-05   0.0   -5.6884215599555644e-05
3.45402068699773e-05   -8.004138298445246e-06   9.067040980227078e-06
3.45402068699773e-05   -8.004138298445246e-06   9.067040980227078e-06
3.45402068699773e-05   -8.004138298445246e-06   9.067040980227078e-06
3.45402068699773e-05   -8.004138298445246e-06   9.067040980227078e-06
5.295873064919562e-05   -3.373340312762809e-06   -2.440897744321291e-05
5.295873064919562e-05   -3.373340312762809e-06   -2.440897744321291e-05
5.295873064919562e-05   -3.373340312762809e-06   -2.440897744321291e-05
5.295873064919562e-05   -3.373340312762809e-06   -2.440897744321291e-05
3.45402068699773e-05   0.0   -5.20817326204885e-05
3.45402068699773e-05   0.0   -5.20817326204885e-05
3.45402068699773e-05   0.0   -5.20817326204885e-05
3.45402068699773e-05   0.0   -5.20817326204885e-05
7.12294710304064e-05   -8.004138298445219e-06   4.2645580011599116e-06
7.12294710304064e-05   -8.004138298445219e-06   4.2645580011599116e-06
7.12294710304064e-05   -8.004138298445219e-06   4.2645580011599116e-06
7.12294710304064e-05   -8.004138298445219e-06   4.2645580011599116e-06
6.796510978901079e-05   0.0   -5.379496724955742e-05
6.796510978901079e-05   0.0   -5.379496724955742e-05
6.796510978901079e-05   0.0   -5.379496724955742e-05
6.796510978901079e-05   0.0   -5.379496724955742e-05
3.5209896445074105e-05   -6.220447109266675e-06   4.5293232558971444e-06
3.5209896445074105e-05   -6.220447109266675e-06   4.5293232558971444e-06
3.5209896445074105e-05   -6.220447109266675e-06   4.5293232558971444e-06
3.5209896445074105e-05   -6.220447109266675e-06   4.5293232558971444e-06
5.12526583294941e-05   -1.4276955242241776e-06   -2.5084264169161663e-05
5.12526583294941e-05   -1.4276955242241776e-06   -2.5084264169161663e-05
5.12526583294941e-05   -1.4276955242241776e-06   -2.5084264169161663e-05
5.12526583294941e-05   -1.4276955242241776e-06   -2.5084264169161663e-05
-7.643886827158284e-05   9.759060494663775e-06   -5.01655974832175e-05
-7.643886827158284e-05   9.759060494663775e-06   -5.01655974832175e-05
-7.643886827158284e-05   9.759060494663775e-06   -5.01655974832175e-05
-7.643886827158284e-05   9.759060494663775e-06   -5.01655974832175e-05