<?xml version="1.0"?> 
<VTKFile type="UnstructuredGrid"> 
   <UnstructuredGrid> 
      <Piece NumberOfPoints="6000"  NumberOfCells="1500">  
          <Points>  
             <DataArray type="Float64" NumberOfComponents="3" format="ascii">   
-500.0   0.0   0.0
-450.0   0.0   0.0
-500.0   30.0   0.0
-500.0   0.0   16.666666666666668
-450.0   0.0   0.0
-450.0   30.0   0.0
-500.0   30.0   0.0
-450.0   30.0   16.666666666666668
-500.0   0.0   16.666666666666668
-500.0   30.0   16.666666666666668
-450.0   30.0   16.666666666666668
-500.0   30.0   0.0
-500.0   0.0   16.666666666666668
-450.0   30.0   16.666666666666668
-450.0   0.0   16.666666666666668
-450.0   0.0   0.0
-500.0   0.0   16.666666666666668
-450.0   30.0   16.666666666666668
-450.0   0.0   0.0
-500.0   30.0   0.0
-500.0   0.0   16.666666666666668
-450.0   0.0   16.666666666666668
-500.0   30.0   16.666666666666668
-500.0   0.0   33.333333333333336
-450.0   0.0   16.666666666666668
-450.0   30.0   16.666666666666668
-500.0   30.0   16.666666666666668
-450.0   30.0   33.333333333333336
-500.0   0.0   33.333333333333336
-500.0   30.0   33.333333333333336
-450.0   30.0   33.333333333333336
-500.0   30.0   16.666666666666668
-500.0   0.0   33.333333333333336
-450.0   30.0   33.333333333333336
-450.0   0.0   33.333333333333336
-450.0   0.0   16.666666666666668
-500.0   0.0   33.333333333333336
-450.0   30.0   33.333333333333336
-450.0   0.0   16.666666666666668
-500.0   30.0   16.666666666666668
-500.0   0.0   33.333333333333336
-450.0   0.0   33.333333333333336
-500.0   30.0   33.333333333333336
-500.0   0.0   50.0
-450.0   0.0   33.333333333333336
-450.0   30.0   33.333333333333336
-500.0   30.0   33.333333333333336
-450.0   30.0   50.0
-500.0   0.0   50.0
-500.0   30.0   50.0
-450.0   30.0   50.0
-500.0   30.0   33.333333333333336
-500.0   0.0   50.0
-450.0   30.0   50.0
-450.0   0.0   50.0
-450.0   0.0   33.333333333333336
-500.0   0.0   50.0
-450.0   30.0   50.0
-450.0   0.0   33.333333333333336
-500.0   30.0   33.333333333333336
-500.0   30.0   0.0
-450.0   30.0   0.0
-500.0   60.0   0.0
-500.0   30.0   16.666666666666668
-450.0   30.0   0.0
-450.0   60.0   0.0
-500.0   60.0   0.0
-450.0   60.0   16.666666666666668
-500.0   30.0   16.666666666666668
-500.0   60.0   16.666666666666668
-450.0   60.0   16.666666666666668
-500.0   60.0   0.0
-500.0   30.0   16.666666666666668
-450.0   60.0   16.666666666666668
-450.0   30.0   16.666666666666668
-450.0   30.0   0.0
-500.0   30.0   16.666666666666668
-450.0   60.0   16.666666666666668
-450.0   30.0   0.0
-500.0   60.0   0.0
-500.0   30.0   16.666666666666668
-450.0   30.0   16.666666666666668
-500.0   60.0   16.666666666666668
-500.0   30.0   33.333333333333336
-450.0   30.0   16.666666666666668
-450.0   60.0   16.666666666666668
-500.0   60.0   16.666666666666668
-450.0   60.0   33.333333333333336
-500.0   30.0   33.333333333333336
-500.0   60.0   33.333333333333336
-450.0   60.0   33.333333333333336
-500.0   60.0   16.666666666666668
-500.0   30.0   33.333333333333336
-450.0   60.0   33.333333333333336
-450.0   30.0   33.333333333333336
-450.0   30.0   16.666666666666668
-500.0   30.0   33.333333333333336
-450.0   60.0   33.333333333333336
-450.0   30.0   16.666666666666668
-500.0   60.0   16.666666666666668
-500.0   30.0   33.333333333333336
-450.0   30.0   33.333333333333336
-500.0   60.0   33.333333333333336
-500.0   30.0   50.0
-450.0   30.0   33.333333333333336
-450.0   60.0   33.333333333333336
-500.0   60.0   33.333333333333336
-450.0   60.0   50.0
-500.0   30.0   50.0
-500.0   60.0   50.0
-450.0   60.0   50.0
-500.0   60.0   33.333333333333336
-500.0   30.0   50.0
-450.0   60.0   50.0
-450.0   30.0   50.0
-450.0   30.0   33.333333333333336
-500.0   30.0   50.0
-450.0   60.0   50.0
-450.0   30.0   33.333333333333336
-500.0   60.0   33.333333333333336
-500.0   60.0   0.0
-450.0   60.0   0.0
-500.0   90.0   0.0
-500.0   60.0   16.666666666666668
-450.0   60.0   0.0
-450.0   90.0   0.0
-500.0   90.0   0.0
-450.0   90.0   16.666666666666668
-500.0   60.0   16.666666666666668
-500.0   90.0   16.666666666666668
-450.0   90.0   16.666666666666668
-500.0   90.0   0.0
-500.0   60.0   16.666666666666668
-450.0   90.0   16.666666666666668
-450.0   60.0   16.666666666666668
-450.0   60.0   0.0
-500.0   60.0   16.666666666666668
-450.0   90.0   16.666666666666668
-450.0   60.0   0.0
-500.0   90.0   0.0
-500.0   60.0   16.666666666666668
-450.0   60.0   16.666666666666668
-500.0   90.0   16.666666666666668
-500.0   60.0   33.333333333333336
-450.0   60.0   16.666666666666668
-450.0   90.0   16.666666666666668
-500.0   90.0   16.666666666666668
-450.0   90.0   33.333333333333336
-500.0   60.0   33.333333333333336
-500.0   90.0   33.333333333333336
-450.0   90.0   33.333333333333336
-500.0   90.0   16.666666666666668
-500.0   60.0   33.333333333333336
-450.0   90.0   33.333333333333336
-450.0   60.0   33.333333333333336
-450.0   60.0   16.666666666666668
-500.0   60.0   33.333333333333336
-450.0   90.0   33.333333333333336
-450.0   60.0   16.666666666666668
-500.0   90.0   16.666666666666668
-500.0   60.0   33.333333333333336
-450.0   60.0   33.333333333333336
-500.0   90.0   33.333333333333336
-500.0   60.0   50.0
-450.0   60.0   33.333333333333336
-450.0   90.0   33.333333333333336
-500.0   90.0   33.333333333333336
-450.0   90.0   50.0
-500.0   60.0   50.0
-500.0   90.0   50.0
-450.0   90.0   50.0
-500.0   90.0   33.333333333333336
-500.0   60.0   50.0
-450.0   90.0   50.0
-450.0   60.0   50.0
-450.0   60.0   33.333333333333336
-500.0   60.0   50.0
-450.0   90.0   50.0
-450.0   60.0   33.333333333333336
-500.0   90.0   33.333333333333336
-500.0   90.0   0.0
-450.0   90.0   0.0
-500.0   120.0   0.0
-500.0   90.0   16.666666666666668
-450.0   90.0   0.0
-450.0   120.0   0.0
-500.0   120.0   0.0
-450.0   120.0   16.666666666666668
-500.0   90.0   16.666666666666668
-500.0   120.0   16.666666666666668
-450.0   120.0   16.666666666666668
-500.0   120.0   0.0
-500.0   90.0   16.666666666666668
-450.0   120.0   16.666666666666668
-450.0   90.0   16.666666666666668
-450.0   90.0   0.0
-500.0   90.0   16.666666666666668
-450.0   120.0   16.666666666666668
-450.0   90.0   0.0
-500.0   120.0   0.0
-500.0   90.0   16.666666666666668
-450.0   90.0   16.666666666666668
-500.0   120.0   16.666666666666668
-500.0   90.0   33.333333333333336
-450.0   90.0   16.666666666666668
-450.0   120.0   16.666666666666668
-500.0   120.0   16.666666666666668
-450.0   120.0   33.333333333333336
-500.0   90.0   33.333333333333336
-500.0   120.0   33.333333333333336
-450.0   120.0   33.333333333333336
-500.0   120.0   16.666666666666668
-500.0   90.0   33.333333333333336
-450.0   120.0   33.333333333333336
-450.0   90.0   33.333333333333336
-450.0   90.0   16.666666666666668
-500.0   90.0   33.333333333333336
-450.0   120.0   33.333333333333336
-450.0   90.0   16.666666666666668
-500.0   120.0   16.666666666666668
-500.0   90.0   33.333333333333336
-450.0   90.0   33.333333333333336
-500.0   120.0   33.333333333333336
-500.0   90.0   50.0
-450.0   90.0   33.333333333333336
-450.0   120.0   33.333333333333336
-500.0   120.0   33.333333333333336
-450.0   120.0   50.0
-500.0   90.0   50.0
-500.0   120.0   50.0
-450.0   120.0   50.0
-500.0   120.0   33.333333333333336
-500.0   90.0   50.0
-450.0   120.0   50.0
-450.0   90.0   50.0
-450.0   90.0   33.333333333333336
-500.0   90.0   50.0
-450.0   120.0   50.0
-450.0   90.0   33.333333333333336
-500.0   120.0   33.333333333333336
-500.0   120.0   0.0
-450.0   120.0   0.0
-500.0   150.0   0.0
-500.0   120.0   16.666666666666668
-450.0   120.0   0.0
-450.0   150.0   0.0
-500.0   150.0   0.0
-450.0   150.0   16.666666666666668
-500.0   120.0   16.666666666666668
-500.0   150.0   16.666666666666668
-450.0   150.0   16.666666666666668
-500.0   150.0   0.0
-500.0   120.0   16.666666666666668
-450.0   150.0   16.666666666666668
-450.0   120.0   16.666666666666668
-450.0   120.0   0.0
-500.0   120.0   16.666666666666668
-450.0   150.0   16.666666666666668
-450.0   120.0   0.0
-500.0   150.0   0.0
-500.0   120.0   16.666666666666668
-450.0   120.0   16.666666666666668
-500.0   150.0   16.666666666666668
-500.0   120.0   33.333333333333336
-450.0   120.0   16.666666666666668
-450.0   150.0   16.666666666666668
-500.0   150.0   16.666666666666668
-450.0   150.0   33.333333333333336
-500.0   120.0   33.333333333333336
-500.0   150.0   33.333333333333336
-450.0   150.0   33.333333333333336
-500.0   150.0   16.666666666666668
-500.0   120.0   33.333333333333336
-450.0   150.0   33.333333333333336
-450.0   120.0   33.333333333333336
-450.0   120.0   16.666666666666668
-500.0   120.0   33.333333333333336
-450.0   150.0   33.333333333333336
-450.0   120.0   16.666666666666668
-500.0   150.0   16.666666666666668
-500.0   120.0   33.333333333333336
-450.0   120.0   33.333333333333336
-500.0   150.0   33.333333333333336
-500.0   120.0   50.0
-450.0   120.0   33.333333333333336
-450.0   150.0   33.333333333333336
-500.0   150.0   33.333333333333336
-450.0   150.0   50.0
-500.0   120.0   50.0
-500.0   150.0   50.0
-450.0   150.0   50.0
-500.0   150.0   33.333333333333336
-500.0   120.0   50.0
-450.0   150.0   50.0
-450.0   120.0   50.0
-450.0   120.0   33.333333333333336
-500.0   120.0   50.0
-450.0   150.0   50.0
-450.0   120.0   33.333333333333336
-500.0   150.0   33.333333333333336
-450.0   0.0   0.0
-400.0   0.0   0.0
-450.0   30.0   0.0
-450.0   0.0   16.666666666666668
-400.0   0.0   0.0
-400.0   30.0   0.0
-450.0   30.0   0.0
-400.0   30.0   16.666666666666668
-450.0   0.0   16.666666666666668
-450.0   30.0   16.666666666666668
-400.0   30.0   16.666666666666668
-450.0   30.0   0.0
-450.0   0.0   16.666666666666668
-400.0   30.0   16.666666666666668
-400.0   0.0   16.666666666666668
-400.0   0.0   0.0
-450.0   0.0   16.666666666666668
-400.0   30.0   16.666666666666668
-400.0   0.0   0.0
-450.0   30.0   0.0
-450.0   0.0   16.666666666666668
-400.0   0.0   16.666666666666668
-450.0   30.0   16.666666666666668
[...]
          <PointData>  
             <DataArray type="Float64" NumberOfComponents="3" Name="Strains" format="ascii">   
-0.00010063189759967759   0.0   -6.602799002685537e-05
-0.00010063189759967759   0.0   -6.602799002685537e-05
-0.00010063189759967759   0.0   -6.602799002685537e-05
-0.00010063189759967759   0.0   -6.602799002685537e-05
-6.403569818432742e-05   1.1150327294092517e-05   1.6558720418503078e-06
-6.403569818432742e-05   1.1150327294092517e-05   1.6558720418503078e-06
-6.403569818432742e-05   1.1150327294092517e-05   1.6558720418503078e-06
-6.403569818432742e-05   1.1150327294092517e-05   1.6558720418503078e-06
-6.277061967548907e-05   0.0   -6.231517048247402e-05
-6.277061967548907e-05   0.0   -6.231517048247402e-05
-6.277061967548907e-05   0.0   -6.231517048247402e-05
-6.277061967548907e-05   0.0   -6.231517048247402e-05
-0.00010531770089546409   1.3379890609270748e-05   5.686971852554893e-07
-0.00010531770089546409   1.3379890609270748e-05   5.686971852554893e-07
-0.00010531770089546409   1.3379890609270748e-05   5.686971852554893e-07
-0.00010531770089546409   1.3379890609270748e-05   5.686971852554893e-07
-8.170125863758319e-05   3.094016286984451e-06   -3.262051531784086e-05
-8.170125863758319e-05   3.094016286984451e-06   -3.262051531784086e-05
-8.170125863758319e-05   3.094016286984451e-06   -3.262051531784086e-05
-8.170125863758319e-05   3.094016286984451e-06   -3.262051531784086e-05
-0.00010531770089546426   0.0   -7.034310484803649e-05
-0.00010531770089546426   0.0   -7.034310484803649e-05
-0.00010531770089546426   0.0   -7.034310484803649e-05
-0.00010531770089546426   0.0   -7.034310484803649e-05
-6.277061967548907e-05   1.3379890609270775e-05   8.59663155081796e-06
-6.277061967548907e-05   1.3379890609270775e-05   8.59663155081796e-06
-6.277061967548907e-05   1.3379890609270775e-05   8.59663155081796e-06
-6.277061967548907e-05   1.3379890609270775e-05   8.59663155081796e-06
-6.294909331254645e-05   0.0   -6.384081701998038e-05
-6.294909331254645e-05   0.0   -6.384081701998038e-05
-6.294909331254645e-05   0.0   -6.384081701998038e-05
-6.294909331254645e-05   0.0   -6.384081701998038e-05
-0.00010860916001977583   1.4334244199164039e-05   3.6587476392371115e-06
-0.00010860916001977583   1.4334244199164039e-05   3.6587476392371115e-06
-0.00010860916001977583   1.4334244199164039e-05   3.6587476392371115e-06
-0.00010860916001977583   1.4334244199164039e-05   3.6587476392371115e-06
-8.413339710400521e-05   5.418573190046752e-06   -3.178478794824351e-05
-8.413339710400521e-05   5.418573190046752e-06   -3.178478794824351e-05
-8.413339710400521e-05   5.418573190046752e-06   -3.178478794824351e-05
-8.413339710400521e-05   5.418573190046752e-06   -3.178478794824351e-05
-0.00010860916001977601   0.0   -7.244136353947883e-05
-0.00010860916001977601   0.0   -7.244136353947883e-05
-0.00010860916001977601   0.0   -7.244136353947883e-05
-0.00010860916001977601   0.0   -7.244136353947883e-05
-6.294909331254645e-05   1.4334244199164066e-05   1.2259294158735556e-05
-6.294909331254645e-05   1.4334244199164066e-05   1.2259294158735556e-05
-6.294909331254645e-05   1.4334244199164066e-05   1.2259294158735556e-05
-6.294909331254645e-05   1.4334244199164066e-05   1.2259294158735556e-05
-6.291763973707586e-05   0.0   -6.423261878088718e-05
-6.291763973707586e-05   0.0   -6.423261878088718e-05
-6.291763973707586e-05   0.0   -6.423261878088718e-05
-6.291763973707586e-05   0.0   -6.423261878088718e-05
-0.00011569843139316383   1.632873015299229e-05   1.3938129220797678e-05
-0.00011569843139316383   1.632873015299229e-05   1.3938129220797678e-05
-0.00011569843139316383   1.632873015299229e-05   1.3938129220797678e-05
-0.00011569843139316383   1.632873015299229e-05   1.3938129220797678e-05
-8.57633998784258e-05   6.840620632159701e-06   -3.026072425793278e-05
-8.57633998784258e-05   6.840620632159701e-06   -3.026072425793278e-05
-8.57633998784258e-05   6.840620632159701e-06   -3.026072425793278e-05
-8.57633998784258e-05   6.840620632159701e-06   -3.026072425793278e-05
-6.403569818432752e-05   0.0   -5.933779365039985e-05
-6.403569818432752e-05   0.0   -5.933779365039985e-05
-6.403569818432752e-05   0.0   -5.933779365039985e-05
-6.403569818432752e-05   0.0   -5.933779365039985e-05
-2.916052712699351e-05   4.089934337523496e-06   1.2414520476708926e-06
-2.916052712699351e-05   4.089934337523496e-06   1.2414520476708926e-06
-2.916052712699351e-05   4.089934337523496e-06   1.2414520476708926e-06
-2.916052712699351e-05   4.089934337523496e-06   1.2414520476708926e-06
-2.8047595072741098e-05   0.0   -5.882193404067189e-05
-2.8047595072741098e-05   0.0   -5.882193404067189e-05
-2.8047595072741098e-05   0.0   -5.882193404067189e-05
-2.8047595072741098e-05   0.0   -5.882193404067189e-05
-6.277061967548907e-05   5.8220607363368985e-06   -4.443462811227423e-06
-6.277061967548907e-05   5.8220607363368985e-06   -4.443462811227423e-06
-6.277061967548907e-05   5.8220607363368985e-06   -4.443462811227423e-06
-6.277061967548907e-05   5.8220607363368985e-06   -4.443462811227423e-06
-4.6041646628534235e-05   4.2988300810663477e-07   -2.9089777919213786e-05
-4.6041646628534235e-05   4.2988300810663477e-07   -2.9089777919213786e-05
-4.6041646628534235e-05   4.2988300810663477e-07   -2.9089777919213786e-05
-4.6041646628534235e-05   4.2988300810663477e-07   -2.9089777919213786e-05
-6.277061967548902e-05   0.0   -6.231517048247397e-05
-6.277061967548902e-05   0.0   -6.231517048247397e-05
-6.277061967548902e-05   0.0   -6.231517048247397e-05
-6.277061967548902e-05   0.0   -6.231517048247397e-05
-2.8047595072741098e-05   5.8220607363368985e-06   -9.502263694252894e-07
-2.8047595072741098e-05   5.8220607363368985e-06   -9.502263694252894e-07
-2.8047595072741098e-05   5.8220607363368985e-06   -9.502263694252894e-07
-2.8047595072741098e-05   5.8220607363368985e-06   -9.502263694252894e-07
-2.7423130635195195e-05   0.0   -5.956060774031685e-05
-2.7423130635195195e-05   0.0   -5.956060774031685e-05
-2.7423130635195195e-05   0.0   -5.956060774031685e-05
-2.7423130635195195e-05   0.0   -5.956060774031685e-05
-6.294909331254645e-05   7.1336821327725635e-06   -4.630879224394992e-06
-6.294909331254645e-05   7.1336821327725635e-06   -4.630879224394992e-06
-6.294909331254645e-05   7.1336821327725635e-06   -4.630879224394992e-06
-6.294909331254645e-05   7.1336821327725635e-06   -4.630879224394992e-06
-4.5096875155342045e-05   2.295468951797646e-06   -3.148164824448377e-05
-4.5096875155342045e-05   2.295468951797646e-06   -3.148164824448377e-05
-4.5096875155342045e-05   2.295468951797646e-06   -3.148164824448377e-05
-4.5096875155342045e-05   2.295468951797646e-06   -3.148164824448377e-05
-6.294909331254645e-05   0.0   -6.384081701998038e-05
-6.294909331254645e-05   0.0   -6.384081701998038e-05
-6.294909331254645e-05   0.0   -6.384081701998038e-05
-6.294909331254645e-05   0.0   -6.384081701998038e-05
-2.7423130635195195e-05   7.1336821327725635e-06   -3.506699447314537e-07
-2.7423130635195195e-05   7.1336821327725635e-06   -3.506699447314537e-07
-2.7423130635195195e-05   7.1336821327725635e-06   -3.506699447314537e-07
-2.7423130635195195e-05   7.1336821327725635e-06   -3.506699447314537e-07
-2.685474628138815e-05   0.0   -5.9252302013959287e-05
-2.685474628138815e-05   0.0   -5.9252302013959287e-05
-2.685474628138815e-05   0.0   -5.9252302013959287e-05
-2.685474628138815e-05   0.0   -5.9252302013959287e-05
-6.29176397370757e-05   8.300527944879734e-06   -4.12779635474099e-06
-6.29176397370757e-05   8.300527944879734e-06   -4.12779635474099e-06
-6.29176397370757e-05   8.300527944879734e-06   -4.12779635474099e-06
-6.29176397370757e-05   8.300527944879734e-06   -4.12779635474099e-06
-4.4901919796967286e-05   3.823762505017548e-06   -3.146793699100459e-05
-4.4901919796967286e-05   3.823762505017548e-06   -3.146793699100459e-05
-4.4901919796967286e-05   3.823762505017548e-06   -3.146793699100459e-05
-4.4901919796967286e-05   3.823762505017548e-06   -3.146793699100459e-05
-2.916052712699356e-05   0.0   -5.688383304788575e-05
-2.916052712699356e-05   0.0   -5.688383304788575e-05
-2.916052712699356e-05   0.0   -5.688383304788575e-05
-2.916052712699356e-05   0.0   -5.688383304788575e-05
3.79119671361194e-06   -5.236549873280686e-07   -2.278486305940044e-06
3.79119671361194e-06   -5.236549873280686e-07   -2.278486305940044e-06
3.79119671361194e-06   -5.236549873280686e-07   -2.278486305940044e-06
3.79119671361194e-06   -5.236549873280686e-07   -2.278486305940044e-06
4.500907538902766e-06   0.0   -5.8202718809773825e-05
4.500907538902766e-06   0.0   -5.8202718809773825e-05
4.500907538902766e-06   0.0   -5.8202718809773825e-05
4.500907538902766e-06   0.0   -5.8202718809773825e-05
-2.8047595072741098e-05   1.032025384829763e-06   -4.5744296879321e-06
-2.8047595072741098e-05   1.032025384829763e-06   -4.5744296879321e-06
-2.8047595072741098e-05   1.032025384829763e-06   -4.5744296879321e-06
-2.8047595072741098e-05   1.032025384829763e-06   -4.5744296879321e-06
-1.2329809794045368e-05   -1.0990714682402317e-06   -2.94920803739162e-05
-1.2329809794045368e-05   -1.0990714682402317e-06   -2.94920803739162e-05
-1.2329809794045368e-05   -1.0990714682402317e-06   -2.94920803739162e-05
-1.2329809794045368e-05   -1.0990714682402317e-06   -2.94920803739162e-05
-2.8047595072741098e-05   0.0   -5.882193404067189e-05
-2.8047595072741098e-05   0.0   -5.882193404067189e-05
-2.8047595072741098e-05   0.0   -5.882193404067189e-05
-2.8047595072741098e-05   0.0   -5.882193404067189e-05
4.500907538902773e-06   1.032025384829763e-06   -3.955214457034227e-06
4.500907538902773e-06   1.032025384829763e-06   -3.955214457034227e-06
4.500907538902773e-06   1.032025384829763e-06   -3.955214457034227e-06
4.500907538902773e-06   1.032025384829763e-06   -3.955214457034227e-06
5.060864738226524e-06   0.0   -5.811956234458776e-05
5.060864738226524e-06   0.0   -5.811956234458776e-05
5.060864738226524e-06   0.0   -5.811956234458776e-05
5.060864738226524e-06   0.0   -5.811956234458776e-05
-2.7423130635195147e-05   2.4017423262149624e-06   -5.420615451280636e-06
-2.7423130635195147e-05   2.4017423262149624e-06   -5.420615451280636e-06
-2.7423130635195147e-05   2.4017423262149624e-06   -5.420615451280636e-06
-2.7423130635195147e-05   2.4017423262149624e-06   -5.420615451280636e-06
-1.1493365167257282e-05   5.853097467366914e-07   -3.0880365016823505e-05
-1.1493365167257282e-05   5.853097467366914e-07   -3.0880365016823505e-05
-1.1493365167257282e-05   5.853097467366914e-07   -3.0880365016823505e-05
-1.1493365167257282e-05   5.853097467366914e-07   -3.0880365016823505e-05
-2.7423130635195195e-05   0.0   -5.956060774031685e-05
-2.7423130635195195e-05   0.0   -5.956060774031685e-05
-2.7423130635195195e-05   0.0   -5.956060774031685e-05
-2.7423130635195195e-05   0.0   -5.956060774031685e-05
5.060864738226533e-06   2.4017423262149895e-06   -3.979570055551654e-06
5.060864738226533e-06   2.4017423262149895e-06   -3.979570055551654e-06
5.060864738226533e-06   2.4017423262149895e-06   -3.979570055551654e-06
5.060864738226533e-06   2.4017423262149895e-06   -3.979570055551654e-06
5.814770956452838e-06   0.0   -5.685931613002714e-05
5.814770956452838e-06   0.0   -5.685931613002714e-05
5.814770956452838e-06   0.0   -5.685931613002714e-05
5.814770956452838e-06   0.0   -5.685931613002714e-05
-2.6854746281388128e-05   3.988309806553488e-06   -4.803106617557632e-06
-2.6854746281388128e-05   3.988309806553488e-06   -4.803106617557632e-06
-2.6854746281388128e-05   3.988309806553488e-06   -4.803106617557632e-06
-2.6854746281388128e-05   3.988309806553488e-06   -4.803106617557632e-06
-1.0804179839371155e-05   2.251076341908004e-06   -3.05117106087986e-05
-1.0804179839371155e-05   2.251076341908004e-06   -3.05117106087986e-05
-1.0804179839371155e-05   2.251076341908004e-06   -3.05117106087986e-05
-1.0804179839371155e-05   2.251076341908004e-06   -3.05117106087986e-05
3.791196713611946e-06   0.0   -5.71980260402826e-05
3.791196713611946e-06   0.0   -5.71980260402826e-05
3.791196713611946e-06   0.0   -5.71980260402826e-05
3.791196713611946e-06   0.0   -5.71980260402826e-05
3.95585612589515e-05   -4.639807544519936e-06   -3.6963632476192125e-07
3.95585612589515e-05   -4.639807544519936e-06   -3.6963632476192125e-07
3.95585612589515e-05   -4.639807544519936e-06   -3.6963632476192125e-07
3.95585612589515e-05   -4.639807544519936e-06   -3.6963632476192125e-07
3.962647778344993e-05   0.0   -6.030164446848825e-05
3.962647778344993e-05   0.0   -6.030164446848825e-05
3.962647778344993e-05   0.0   -6.030164446848825e-05
3.962647778344993e-05   0.0   -6.030164446848825e-05
4.500907538902781e-06   -3.4982094311903662e-06   3.398982644712277e-07
4.500907538902781e-06   -3.4982094311903662e-06   3.398982644712277e-07
4.500907538902781e-06   -3.4982094311903662e-06   3.398982644712277e-07
4.500907538902781e-06   -3.4982094311903662e-06   3.398982644712277e-07
2.1708837248530938e-05   -2.5863486901713873e-06   -2.8887101029520405e-05
2.1708837248530938e-05   -2.5863486901713873e-06   -2.8887101029520405e-05
2.1708837248530938e-05   -2.5863486901713873e-06   -2.8887101029520405e-05
2.1708837248530938e-05   -2.5863486901713873e-06   -2.8887101029520405e-05
4.500907538902781e-06   0.0   -5.820271880977403e-05
4.500907538902781e-06   0.0   -5.820271880977403e-05
4.500907538902781e-06   0.0   -5.820271880977403e-05
4.500907538902781e-06   0.0   -5.820271880977403e-05
3.962647778344993e-05   -3.4982094311903662e-06   -1.7590273942429965e-06
3.962647778344993e-05   -3.4982094311903662e-06   -1.7590273942429965e-06
3.962647778344993e-05   -3.4982094311903662e-06   -1.7590273942429965e-06
3.962647778344993e-05   -3.4982094311903662e-06   -1.7590273942429965e-06
3.9454673289146385e-05   0.0   -5.9440542378523353e-05
3.9454673289146385e-05   0.0   -5.9440542378523353e-05
3.9454673289146385e-05   0.0   -5.9440542378523353e-05
3.9454673289146385e-05   0.0   -5.9440542378523353e-05
5.060864738226533e-06   -2.2016333898924976e-06   -7.965480930547867e-07
5.060864738226533e-06   -2.2016333898924976e-06   -7.965480930547867e-07
5.060864738226533e-06   -2.2016333898924976e-06   -7.965480930547867e-07
5.060864738226533e-06   -2.2016333898924976e-06   -7.965480930547867e-07
2.1977790414024583e-05   -1.031519640624439e-06   -2.969349246894567e-05
2.1977790414024583e-05   -1.031519640624439e-06   -2.969349246894567e-05
2.1977790414024583e-05   -1.031519640624439e-06   -2.969349246894567e-05
2.1977790414024583e-05   -1.031519640624439e-06   -2.969349246894567e-05
5.060864738226528e-06   0.0   -5.811956234458781e-05
5.060864738226528e-06   0.0   -5.811956234458781e-05
5.060864738226528e-06   0.0   -5.811956234458781e-05
5.060864738226528e-06   0.0   -5.811956234458781e-05
3.9454673289146385e-05   -2.2016333898924976e-06   -2.117528126990281e-06
3.9454673289146385e-05   -2.2016333898924976e-06   -2.117528126990281e-06
3.9454673289146385e-05   -2.2016333898924976e-06   -2.117528126990281e-06
3.9454673289146385e-05   -2.2016333898924976e-06   -2.117528126990281e-06
4.021678334215554e-05   0.0   -5.7134834526798135e-05
4.021678334215554e-05   0.0   -5.7134834526798135e-05
4.021678334215554e-05   0.0   -5.7134834526798135e-05
4.021678334215554e-05   0.0   -5.7134834526798135e-05
5.814770956452847e-06   -4.5919732795150845e-07   4.773711794772425e-07
5.814770956452847e-06   -4.5919732795150845e-07   4.773711794772425e-07
5.814770956452847e-06   -4.5919732795150845e-07   4.773711794772425e-07
5.814770956452847e-06   -4.5919732795150845e-07   4.773711794772425e-07
2.263882404019102e-05   8.206065148247754e-07   -2.833059959908545e-05
2.263882404019102e-05   8.206065148247754e-07   -2.833059959908545e-05
2.263882404019102e-05   8.206065148247754e-07   -2.833059959908545e-05
2.263882404019102e-05   8.206065148247754e-07   -2.833059959908545e-05
3.95585612589515e-05   0.0   -5.9981910566994554e-05
3.95585612589515e-05   0.0   -5.9981910566994554e-05
3.95585612589515e-05   0.0   -5.9981910566994554e-05
3.95585612589515e-05   0.0   -5.9981910566994554e-05
8.929627765712622e-05   -1.1760259147572416e-05   1.585812794142034e-05
8.929627765712622e-05   -1.1760259147572416e-05   1.585812794142034e-05
8.929627765712622e-05   -1.1760259147572416e-05   1.585812794142034e-05
8.929627765712622e-05   -1.1760259147572416e-05   1.585812794142034e-05
8.386046499695026e-05   0.0   -6.630607853841653e-05
8.386046499695026e-05   0.0   -6.630607853841653e-05
8.386046499695026e-05   0.0   -6.630607853841653e-05
8.386046499695026e-05   0.0   -6.630607853841653e-05
3.962647778344993e-05   -1.0007390116547127e-05   1.3421667554012277e-05
3.962647778344993e-05   -1.0007390116547127e-05   1.3421667554012277e-05
3.962647778344993e-05   -1.0007390116547127e-05   1.3421667554012277e-05
3.962647778344993e-05   -1.0007390116547127e-05   1.3421667554012277e-05
6.170951312795088e-05   -5.270139976184983e-06   -2.6225741437706553e-05
6.170951312795088e-05   -5.270139976184983e-06   -2.6225741437706553e-05
6.170951312795088e-05   -5.270139976184983e-06   -2.6225741437706553e-05
6.170951312795088e-05   -5.270139976184983e-06   -2.6225741437706553e-05
3.96264777834499e-05   0.0   -6.03016444684882e-05
3.96264777834499e-05   0.0   -6.03016444684882e-05
3.96264777834499e-05   0.0   -6.03016444684882e-05
3.96264777834499e-05   0.0   -6.03016444684882e-05
8.386046499694996e-05   -1.0007390116547086e-05   7.417233484083969e-06
8.386046499694996e-05   -1.0007390116547086e-05   7.417233484083969e-06
8.386046499694996e-05   -1.0007390116547086e-05   7.417233484083969e-06
8.386046499694996e-05   -1.0007390116547086e-05   7.417233484083969e-06
8.135285038237109e-05   0.0   -6.492751596793018e-05
8.135285038237109e-05   0.0   -6.492751596793018e-05
8.135285038237109e-05   0.0   -6.492751596793018e-05
8.135285038237109e-05   0.0   -6.492751596793018e-05
3.9454673289146385e-05   -9.144955982344683e-06   1.038975277685116e-05
3.9454673289146385e-05   -9.144955982344683e-06   1.038975277685116e-05
3.9454673289146385e-05   -9.144955982344683e-06   1.038975277685116e-05
3.9454673289146385e-05   -9.144955982344683e-06   1.038975277685116e-05
6.048966408291048e-05   -3.8548929162015975e-06   -2.784260305244153e-05
6.048966408291048e-05   -3.8548929162015975e-06   -2.784260305244153e-05
6.048966408291048e-05   -3.8548929162015975e-06   -2.784260305244153e-05
6.048966408291048e-05   -3.8548929162015975e-06   -2.784260305244153e-05
3.9454673289146385e-05   0.0   -5.9440542378523353e-05
3.9454673289146385e-05   0.0   -5.9440542378523353e-05
3.9454673289146385e-05   0.0   -5.9440542378523353e-05
3.9454673289146385e-05   0.0   -5.9440542378523353e-05
8.135285038237082e-05   -9.144955982344656e-06   4.902779187444318e-06
8.135285038237082e-05   -9.144955982344656e-06   4.902779187444318e-06
8.135285038237082e-05   -9.144955982344656e-06   4.902779187444318e-06
8.135285038237082e-05   -9.144955982344656e-06   4.902779187444318e-06
7.762117838159359e-05   0.0   -6.140034601265026e-05
7.762117838159359e-05   0.0   -6.140034601265026e-05
7.762117838159359e-05   0.0   -6.140034601265026e-05
7.762117838159359e-05   0.0   -6.140034601265026e-05
4.021678334215554e-05   -7.109185809753721e-06   5.205823872265496e-06
4.021678334215554e-05   -7.109185809753721e-06   5.205823872265496e-06
4.021678334215554e-05   -7.109185809753721e-06   5.205823872265496e-06
4.021678334215554e-05   -7.109185809753721e-06   5.205823872265496e-06
5.853792583537005e-05   -1.6331696951058433e-06   -2.8615023285214065e-05
5.853792583537005e-05   -1.6331696951058433e-06   -2.8615023285214065e-05
5.853792583537005e-05   -1.6331696951058433e-06   -2.8615023285214065e-05
5.853792583537005e-05   -1.6331696951058433e-06   -2.8615023285214065e-05
-8.732498610903866e-05   1.1150327294092504e-05   -5.7285230754083747e-05
-8.732498610903866e-05   1.1150327294092504e-05   -5.7285230754083747e-05
-8.732498610903866e-05   1.1150327294092504e-05   -5.7285230754083747e-05
-8.732498610903866e-05   1.1150327294092504e-05   -5.7285230754083747e-05