<?xml version="1.0"?> 
<VTKFile type="UnstructuredGrid"> 
   <UnstructuredGrid> 
      <Piece NumberOfPoints="6000"  NumberOfCells="1500">  
          <Points>  
             <DataArray type="Float64" NumberOfComponents="3" format="ascii">   
-500.0   0.0   0.0
-450.0   0.0   0.0
-500.0   30.0   0.0
-500.0   0.0   16.666666666666668
-450.0   0.0   0.0
-450.0   30.0   0.0
-500.0   30.0   0.0
-450.0   30.0   16.666666666666668
-500.0   0.0   16.666666666666668
-500.0   30.0   16.666666666666668
-450.0   30.0   16.666666666666668
-500.0   30.0   0.0
-500.0   0.0   16.666666666666668
-450.0   30.0   16.666666666666668
-450.0   0.0   16.666666666666668
-450.0   0.0   0.0
-500.0   0.0   16.666666666666668
-450.0   30.0   16.666666666666668
-450.0   0.0   0.0
-500.0   30.0   0.0
-500.0   0.0   16.666666666666668
-450.0   0.0   16.666666666666668
-500.0   30.0   16.666666666666668
-500.0   0.0   33.333333333333336
-450.0   0.0   16.666666666666668
-450.0   30.0   16.666666666666668
-500.0   30.0   16.666666666666668
-450.0   30.0   33.333333333333336
-500.0   0.0   33.333333333333336
-500.0   30.0   33.333333333333336
-450.0   30.0   33.333333333333336
-500.0   30.0   16.666666666666668
-500.0   0.0   33.333333333333336
-450.0   30.0   33.333333333333336
-450.0   0.0   33.333333333333336
-450.0   0.0   16.666666666666668
-500.0   0.0   33.333333333333336
-450.0   30.0   33.333333333333336
-450.0   0.0   16.666666666666668
-500.0   30.0   16.666666666666668
-500.0   0.0   33.333333333333336
-450.0   0.0   33.333333333333336
-500.0   30.0   33.333333333333336
-500.0   0.0   50.0
-450.0   0.0   33.333333333333336
-450.0   30.0   33.333333333333336
-500.0   30.0   33.333333333333336
-450.0   30.0   50.0
-500.0   0.0   50.0
-500.0   30.0   50.0
-450.0   30.0   50.0
-500.0   30.0   33.333333333333336
-500.0   0.0   50.0
-450.0   30.0   50.0
-450.0   0.0   50.0
-450.0   0.0   33.333333333333336
-500.0   0.0   50.0
-450.0   30.0   50.0
-450.0   0.0   33.333333333333336
-500.0   30.0   33.333333333333336
-500.0   30.0   0.0
-450.0   30.0   0.0
-500.0   60.0   0.0
-500.0   30.0   16.666666666666668
-450.0   30.0   0.0
-450.0   60.0   0.0
-500.0   60.0   0.0
-450.0   60.0   16.666666666666668
-500.0   30.0   16.666666666666668
-500.0   60.0   16.666666666666668
-450.0   60.0   16.666666666666668
-500.0   60.0   0.0
-500.0   30.0   16.666666666666668
-450.0   60.0   16.666666666666668
-450.0   30.0   16.666666666666668
-450.0   30.0   0.0
-500.0   30.0   16.666666666666668
-450.0   60.0   16.666666666666668
-450.0   30.0   0.0
-500.0   60.0   0.0
-500.0   30.0   16.666666666666668
-450.0   30.0   16.666666666666668
-500.0   60.0   16.666666666666668
-500.0   30.0   33.333333333333336
-450.0   30.0   16.666666666666668
-450.0   60.0   16.666666666666668
-500.0   60.0   16.666666666666668
-450.0   60.0   33.333333333333336
-500.0   30.0   33.333333333333336
-500.0   60.0   33.333333333333336
-450.0   60.0   33.333333333333336
-500.0   60.0   16.666666666666668
-500.0   30.0   33.333333333333336
-450.0   60.0   33.333333333333336
-450.0   30.0   33.333333333333336
-450.0   30.0   16.666666666666668
-500.0   30.0   33.333333333333336
-450.0   60.0   33.333333333333336
-450.0   30.0   16.666666666666668
-500.0   60.0   16.666666666666668
-500.0   30.0   33.333333333333336
-450.0   30.0   33.333333333333336
-500.0   60.0   33.333333333333336
-500.0   30.0   50.0
-450.0   30.0   33.333333333333336
-450.0   60.0   33.333333333333336
-500.0   60.0   33.333333333333336
-450.0   60.0   50.0
-500.0   30.0   50.0
-500.0   60.0   50.0
-450.0   60.0   50.0
-500.0   60.0   33.333333333333336
-500.0   30.0   50.0
-450.0   60.0   50.0
-450.0   30.0   50.0
-450.0   30.0   33.333333333333336
-500.0   30.0   50.0
-450.0   60.0   50.0
-450.0   30.0   33.333333333333336
-500.0   60.0   33.333333333333336
-500.0   60.0   0.0
-450.0   60.0   0.0
-500.0   90.0   0.0
-500.0   60.0   16.666666666666668
-450.0   60.0   0.0
-450.0   90.0   0.0
-500.0   90.0   0.0
-450.0   90.0   16.666666666666668
-500.0   60.0   16.666666666666668
-500.0   90.0   16.666666666666668
-450.0   90.0   16.666666666666668
-500.0   90.0   0.0
-500.0   60.0   16.666666666666668
-450.0   90.0   16.666666666666668
-450.0   60.0   16.666666666666668
-450.0   60.0   0.0
-500.0   60.0   16.666666666666668
-450.0   90.0   16.666666666666668
-450.0   60.0   0.0
-500.0   90.0   0.0
-500.0   60.0   16.666666666666668
-450.0   60.0   16.666666666666668
-500.0   90.0   16.666666666666668
-500.0   60.0   33.333333333333336
-450.0   60.0   16.666666666666668
-450.0   90.0   16.666666666666668
-500.0   90.0   16.666666666666668
-450.0   90.0   33.333333333333336
-500.0   60.0   33.333333333333336
-500.0   90.0   33.333333333333336
-450.0   90.0   33.333333333333336
-500.0   90.0   16.666666666666668
-500.0   60.0   33.333333333333336
-450.0   90.0   33.333333333333336
-450.0   60.0   33.333333333333336
-450.0   60.0   16.666666666666668
-500.0   60.0   33.333333333333336
-450.0   90.0   33.333333333333336
-450.0   60.0   16.666666666666668
-500.0   90.0   16.666666666666668
-500.0   60.0   33.333333333333336
-450.0   60.0   33.333333333333336
-500.0   90.0   33.333333333333336
-500.0   60.0   50.0
-450.0   60.0   33.333333333333336
-450.0   90.0   33.333333333333336
-500.0   90.0   33.333333333333336
-450.0   90.0   50.0
-500.0   60.0   50.0
-500.0   90.0   50.0
-450.0   90.0   50.0
-500.0   90.0   33.333333333333336
-500.0   60.0   50.0
-450.0   90.0   50.0
-450.0   60.0   50.0
-450.0   60.0   33.333333333333336
-500.0   60.0   50.0
-450.0   90.0   50.0
-450.0   60.0   33.333333333333336
-500.0   90.0   33.333333333333336
-500.0   90.0   0.0
-450.0   90.0   0.0
-500.0   120.0   0.0
-500.0   90.0   16.666666666666668
-450.0   90.0   0.0
-450.0   120.0   0.0
-500.0   120.0   0.0
-450.0   120.0   16.666666666666668
-500.0   90.0   16.666666666666668
-500.0   120.0   16.666666666666668
-450.0   120.0   16.666666666666668
-500.0   120.0   0.0
-500.0   90.0   16.666666666666668
-450.0   120.0   16.666666666666668
-450.0   90.0   16.666666666666668
-450.0   90.0   0.0
-500.0   90.0   16.666666666666668
-450.0   120.0   16.666666666666668
-450.0   90.0   0.0
-500.0   120.0   0.0
-500.0   90.0   16.666666666666668
-450.0   90.0   16.666666666666668
-500.0   120.0   16.666666666666668
-500.0   90.0   33.333333333333336
-450.0   90.0   16.666666666666668
-450.0   120.0   16.666666666666668
-500.0   120.0   16.666666666666668
-450.0   120.0   33.333333333333336
-500.0   90.0   33.333333333333336
-500.0   120.0   33.333333333333336
-450.0   120.0   33.333333333333336
-500.0   120.0   16.666666666666668
-500.0   90.0   33.333333333333336
-450.0   120.0   33.333333333333336
-450.0   90.0   33.333333333333336
-450.0   90.0   16.666666666666668
-500.0   90.0   33.333333333333336
-450.0   120.0   33.333333333333336
-450.0   90.0   16.666666666666668
-500.0   120.0   16.666666666666668
-500.0   90.0   33.333333333333336
-450.0   90.0   33.333333333333336
-500.0   120.0   33.333333333333336
-500.0   90.0   50.0
-450.0   90.0   33.333333333333336
-450.0   120.0   33.333333333333336
-500.0   120.0   33.333333333333336
-450.0   120.0   50.0
-500.0   90.0   50.0
-500.0   120.0   50.0
-450.0   120.0   50.0
-500.0   120.0   33.333333333333336
-500.0   90.0   50.0
-450.0   120.0   50.0
-450.0   90.0   50.0
-450.0   90.0   33.333333333333336
-500.0   90.0   50.0
-450.0   120.0   50.0
-450.0   90.0   33.333333333333336
-500.0   120.0   33.333333333333336
-500.0   120.0   0.0
-450.0   120.0   0.0
-500.0   150.0   0.0
-500.0   120.0   16.666666666666668
-450.0   120.0   0.0
-450.0   150.0   0.0
-500.0   150.0   0.0
-450.0   150.0   16.666666666666668
-500.0   120.0   16.666666666666668
-500.0   150.0   16.666666666666668
-450.0   150.0   16.666666666666668
-500.0   150.0   0.0
-500.0   120.0   16.666666666666668
-450.0   150.0   16.666666666666668
-450.0   120.0   16.666666666666668
-450.0   120.0   0.0
-500.0   120.0   16.666666666666668
-450.0   150.0   16.666666666666668
-450.0   120.0   0.0
-500.0   150.0   0.0
-500.0   120.0   16.666666666666668
-450.0   120.0   16.666666666666668
-500.0   150.0   16.666666666666668
-500.0   120.0   33.333333333333336
-450.0   120.0   16.666666666666668
-450.0   150.0   16.666666666666668
-500.0   150.0   16.666666666666668
-450.0   150.0   33.333333333333336
-500.0   120.0   33.333333333333336
-500.0   150.0   33.333333333333336
-450.0   150.0   33.333333333333336
-500.0   150.0   16.666666666666668
-500.0   120.0   33.333333333333336
-450.0   150.0   33.333333333333336
-450.0   120.0   33.333333333333336
-450.0   120.0   16.666666666666668
-500.0   120.0   33.333333333333336
-450.0   150.0   33.333333333333336
-450.0   120.0   16.666666666666668
-500.0   150.0   16.666666666666668
-500.0   120.0   33.333333333333336
-450.0   120.0   33.333333333333336
-500.0   150.0   33.333333333333336
-500.0   120.0   50.0
-450.0   120.0   33.333333333333336
-450.0   150.0   33.333333333333336
-500.0   150.0   33.333333333333336
-450.0   150.0   50.0
-500.0   120.0   50.0
-500.0   150.0   50.0
-450.0   150.0   50.0
-500.0   150.0   33.333333333333336
-500.0   120.0   50.0
-450.0   150.0   50.0
-450.0   120.0   50.0
-450.0   120.0   33.333333333333336
-500.0   120.0   50.0
-450.0   150.0   50.0
-450.0   120.0   33.333333333333336
-500.0   150.0   33.333333333333336
-450.0   0.0   0.0
-400.0   0.0   0.0
-450.0   30.0   0.0
-450.0   0.0   16.666666666666668
-400.0   0.0   0.0
-400.0   30.0   0.0
-450.0   30.0   0.0
-400.0   30.0   16.666666666666668
-450.0   0.0   16.666666666666668
-450.0   30.0   16.666666666666668
-400.0   30.0   16.666666666666668
-450.0   30.0   0.0
-450.0   0.0   16.666666666666668
-400.0   30.0   16.666666666666668
-400.0   0.0   16.666666666666668
-400.0   0.0   0.0
-450.0   0.0   16.666666666666668
-400.0   30.0   16.666666666666668
-400.0   0.0   0.0
-450.0   30.0   0.0
-450.0   0.0   16.666666666666668
-400.0   0.0   16.666666666666668
-450.0   30.0   16.666666666666668
[...]
          <PointData>  
             <DataArray type="Float64" NumberOfComponents="3" Name="Strains" format="ascii">   
-0.00011314908742652851   0.0   -7.420835994025709e-05
-0.00011314908742652851   0.0   -7.420835994025709e-05
-0.00011314908742652851   0.0   -7.420835994025709e-05
-0.00011314908742652851   0.0   -7.420835994025709e-05
-7.200405950255404e-05   1.2541594093521286e-05   1.8916430558129981e-06
-7.200405950255404e-05   1.2541594093521286e-05   1.8916430558129981e-06
-7.200405950255404e-05   1.2541594093521286e-05   1.8916430558129981e-06
-7.200405950255404e-05   1.2541594093521286e-05   1.8916430558129981e-06
-7.058378904986695e-05   0.0   -7.003125786780577e-05
-7.058378904986695e-05   0.0   -7.003125786780577e-05
-7.058378904986695e-05   0.0   -7.003125786780577e-05
-7.058378904986695e-05   0.0   -7.003125786780577e-05
-0.00011842049591123633   1.504728584579718e-05   6.682153936652258e-07
-0.00011842049591123633   1.504728584579718e-05   6.682153936652258e-07
-0.00011842049591123633   1.504728584579718e-05   6.682153936652258e-07
-0.00011842049591123633   1.504728584579718e-05   6.682153936652258e-07
-9.186643823819757e-05   3.4809183937094232e-06   -3.664872692348003e-05
-9.186643823819757e-05   3.4809183937094232e-06   -3.664872692348003e-05
-9.186643823819757e-05   3.4809183937094232e-06   -3.664872692348003e-05
-9.186643823819757e-05   3.4809183937094232e-06   -3.664872692348003e-05
-0.00011842049591123654   0.0   -7.905962937528408e-05
-0.00011842049591123654   0.0   -7.905962937528408e-05
-0.00011842049591123654   0.0   -7.905962937528408e-05
-0.00011842049591123654   0.0   -7.905962937528408e-05
-7.058378904986695e-05   1.5047285845797194e-05   9.696586901143526e-06
-7.058378904986695e-05   1.5047285845797194e-05   9.696586901143526e-06
-7.058378904986695e-05   1.5047285845797194e-05   9.696586901143526e-06
-7.058378904986695e-05   1.5047285845797194e-05   9.696586901143526e-06
-7.078688856273828e-05   0.0   -7.174646460614082e-05
-7.078688856273828e-05   0.0   -7.174646460614082e-05
-7.078688856273828e-05   0.0   -7.174646460614082e-05
-7.078688856273828e-05   0.0   -7.174646460614082e-05
-0.00012212440946167245   1.6120008729441162e-05   4.1440649877517316e-06
-0.00012212440946167245   1.6120008729441162e-05   4.1440649877517316e-06
-0.00012212440946167245   1.6120008729441162e-05   4.1440649877517316e-06
-0.00012212440946167245   1.6120008729441162e-05   4.1440649877517316e-06
-9.460369223698724e-05   6.094303974286056e-06   -3.570837420029715e-05
-9.460369223698724e-05   6.094303974286056e-06   -3.570837420029715e-05
-9.460369223698724e-05   6.094303974286056e-06   -3.570837420029715e-05
-9.460369223698724e-05   6.094303974286056e-06   -3.570837420029715e-05
-0.00012212440946167267   0.0   -8.141846984380553e-05
-0.00012212440946167267   0.0   -8.141846984380553e-05
-0.00012212440946167267   0.0   -8.141846984380553e-05
-0.00012212440946167267   0.0   -8.141846984380553e-05
-7.078688856273828e-05   1.612000872944119e-05   1.3816070225416456e-05
-7.078688856273828e-05   1.612000872944119e-05   1.3816070225416456e-05
-7.078688856273828e-05   1.612000872944119e-05   1.3816070225416456e-05
-7.078688856273828e-05   1.612000872944119e-05   1.3816070225416456e-05
-7.075423645049045e-05   0.0   -7.218656714888473e-05
-7.075423645049045e-05   0.0   -7.218656714888473e-05
-7.075423645049045e-05   0.0   -7.218656714888473e-05
-7.075423645049045e-05   0.0   -7.218656714888473e-05
-0.00013009964965978447   1.836121407608857e-05   1.570572642095247e-05
-0.00013009964965978447   1.836121407608857e-05   1.570572642095247e-05
-0.00013009964965978447   1.836121407608857e-05   1.570572642095247e-05
-0.00013009964965978447   1.836121407608857e-05   1.570572642095247e-05
-9.64393229560814e-05   7.693252245767326e-06   -3.3994040987026544e-05
-9.64393229560814e-05   7.693252245767326e-06   -3.3994040987026544e-05
-9.64393229560814e-05   7.693252245767326e-06   -3.3994040987026544e-05
-9.64393229560814e-05   7.693252245767326e-06   -3.3994040987026544e-05
-7.200405950255417e-05   0.0   -6.668340348414431e-05
-7.200405950255417e-05   0.0   -6.668340348414431e-05
-7.200405950255417e-05   0.0   -6.668340348414431e-05
-7.200405950255417e-05   0.0   -6.668340348414431e-05
-3.278636524706865e-05   4.60108425625931e-06   1.4400708287537573e-06
-3.278636524706865e-05   4.60108425625931e-06   1.4400708287537573e-06
-3.278636524706865e-05   4.60108425625931e-06   1.4400708287537573e-06
-3.278636524706865e-05   4.60108425625931e-06   1.4400708287537573e-06
-3.1537400515516456e-05   0.0   -6.610229958983105e-05
-3.1537400515516456e-05   0.0   -6.610229958983105e-05
-3.1537400515516456e-05   0.0   -6.610229958983105e-05
-3.1537400515516456e-05   0.0   -6.610229958983105e-05
-7.058378904986695e-05   6.548263796624538e-06   -4.953943643888295e-06
-7.058378904986695e-05   6.548263796624538e-06   -4.953943643888295e-06
-7.058378904986695e-05   6.548263796624538e-06   -4.953943643888295e-06
-7.058378904986695e-05   6.548263796624538e-06   -4.953943643888295e-06
-5.1770730009035223e-05   4.842532452610491e-07   -3.267063571445618e-05
-5.1770730009035223e-05   4.842532452610491e-07   -3.267063571445618e-05
-5.1770730009035223e-05   4.842532452610491e-07   -3.267063571445618e-05
-5.1770730009035223e-05   4.842532452610491e-07   -3.267063571445618e-05
-7.058378904986688e-05   0.0   -7.003125786780572e-05
-7.058378904986688e-05   0.0   -7.003125786780572e-05
-7.058378904986688e-05   0.0   -7.003125786780572e-05
-7.058378904986688e-05   0.0   -7.003125786780572e-05
-3.1537400515516456e-05   6.548263796624538e-06   -1.0249853659135815e-06
-3.1537400515516456e-05   6.548263796624538e-06   -1.0249853659135815e-06
-3.1537400515516456e-05   6.548263796624538e-06   -1.0249853659135815e-06
-3.1537400515516456e-05   6.548263796624538e-06   -1.0249853659135815e-06
-3.08375952189966e-05   0.0   -6.693289741484119e-05
-3.08375952189966e-05   0.0   -6.693289741484119e-05
-3.08375952189966e-05   0.0   -6.693289741484119e-05
-3.08375952189966e-05   0.0   -6.693289741484119e-05
-7.078688856273828e-05   8.022611985499385e-06   -5.164309033238039e-06
-7.078688856273828e-05   8.022611985499385e-06   -5.164309033238039e-06
-7.078688856273828e-05   8.022611985499385e-06   -5.164309033238039e-06
-7.078688856273828e-05   8.022611985499385e-06   -5.164309033238039e-06
-5.071069213443167e-05   2.5819670441371587e-06   -3.536024944893141e-05
-5.071069213443167e-05   2.5819670441371587e-06   -3.536024944893141e-05
-5.071069213443167e-05   2.5819670441371587e-06   -3.536024944893141e-05
-5.071069213443167e-05   2.5819670441371587e-06   -3.536024944893141e-05
-7.078688856273828e-05   0.0   -7.174646460614082e-05
-7.078688856273828e-05   0.0   -7.174646460614082e-05
-7.078688856273828e-05   0.0   -7.174646460614082e-05
-7.078688856273828e-05   0.0   -7.174646460614082e-05
-3.08375952189966e-05   8.022611985499385e-06   -3.507418419383985e-07
-3.08375952189966e-05   8.022611985499385e-06   -3.507418419383985e-07
-3.08375952189966e-05   8.022611985499385e-06   -3.507418419383985e-07
-3.08375952189966e-05   8.022611985499385e-06   -3.507418419383985e-07
-3.0201035189152086e-05   0.0   -6.658599500318259e-05
-3.0201035189152086e-05   0.0   -6.658599500318259e-05
-3.0201035189152086e-05   0.0   -6.658599500318259e-05
-3.0201035189152086e-05   0.0   -6.658599500318259e-05
-7.075423645049027e-05   9.334286909503441e-06   -4.597898379987437e-06
-7.075423645049027e-05   9.334286909503441e-06   -4.597898379987437e-06
-7.075423645049027e-05   9.334286909503441e-06   -4.597898379987437e-06
-7.075423645049027e-05   9.334286909503441e-06   -4.597898379987437e-06
-5.0493961875945165e-05   4.300391335798479e-06   -3.534468532667321e-05
-5.0493961875945165e-05   4.300391335798479e-06   -3.534468532667321e-05
-5.0493961875945165e-05   4.300391335798479e-06   -3.534468532667321e-05
-5.0493961875945165e-05   4.300391335798479e-06   -3.534468532667321e-05
-3.27863652470687e-05   0.0   -6.392275293038872e-05
-3.27863652470687e-05   0.0   -6.392275293038872e-05
-3.27863652470687e-05   0.0   -6.392275293038872e-05
-3.27863652470687e-05   0.0   -6.392275293038872e-05
4.270441906776353e-06   -5.884724769176586e-07   -2.514491160130827e-06
4.270441906776353e-06   -5.884724769176586e-07   -2.514491160130827e-06
4.270441906776353e-06   -5.884724769176586e-07   -2.514491160130827e-06
4.270441906776353e-06   -5.884724769176586e-07   -2.514491160130827e-06
5.065780927413802e-06   0.0   -6.540601310509001e-05
5.065780927413802e-06   0.0   -6.540601310509001e-05
5.065780927413802e-06   0.0   -6.540601310509001e-05
5.065780927413802e-06   0.0   -6.540601310509001e-05
-3.1537400515516456e-05   1.1604774745680309e-06   -5.096997184947266e-06
-3.1537400515516456e-05   1.1604774745680309e-06   -5.096997184947266e-06
-3.1537400515516456e-05   1.1604774745680309e-06   -5.096997184947266e-06
-3.1537400515516456e-05   1.1604774745680309e-06   -5.096997184947266e-06
-1.3860292159827417e-05   -1.2360501455845906e-06   -3.3120927872337295e-05
-1.3860292159827417e-05   -1.2360501455845906e-06   -3.3120927872337295e-05
-1.3860292159827417e-05   -1.2360501455845906e-06   -3.3120927872337295e-05
-1.3860292159827417e-05   -1.2360501455845906e-06   -3.3120927872337295e-05
-3.1537400515516456e-05   0.0   -6.610229958983105e-05
-3.1537400515516456e-05   0.0   -6.610229958983105e-05
-3.1537400515516456e-05   0.0   -6.610229958983105e-05
-3.1537400515516456e-05   0.0   -6.610229958983105e-05
5.065780927413811e-06   1.1604774745680173e-06   -4.400710700206441e-06
5.065780927413811e-06   1.1604774745680173e-06   -4.400710700206441e-06
5.065780927413811e-06   1.1604774745680173e-06   -4.400710700206441e-06
5.065780927413811e-06   1.1604774745680173e-06   -4.400710700206441e-06
5.692978815544194e-06   0.0   -6.531275023970916e-05
5.692978815544194e-06   0.0   -6.531275023970916e-05
5.692978815544194e-06   0.0   -6.531275023970916e-05
5.692978815544194e-06   0.0   -6.531275023970916e-05
-3.0837595218996544e-05   2.7002452918865183e-06   -6.048607357273185e-06
-3.0837595218996544e-05   2.7002452918865183e-06   -6.048607357273185e-06
-3.0837595218996544e-05   2.7002452918865183e-06   -6.048607357273185e-06
-3.0837595218996544e-05   2.7002452918865183e-06   -6.048607357273185e-06
-1.2922210849986126e-05   6.57957791768149e-07   -3.468220880555292e-05
-1.2922210849986126e-05   6.57957791768149e-07   -3.468220880555292e-05
-1.2922210849986126e-05   6.57957791768149e-07   -3.468220880555292e-05
-1.2922210849986126e-05   6.57957791768149e-07   -3.468220880555292e-05
-3.08375952189966e-05   0.0   -6.693289741484119e-05
-3.08375952189966e-05   0.0   -6.693289741484119e-05
-3.08375952189966e-05   0.0   -6.693289741484119e-05
-3.08375952189966e-05   0.0   -6.693289741484119e-05
5.692978815544204e-06   2.700245291886532e-06   -4.428460182141278e-06
5.692978815544204e-06   2.700245291886532e-06   -4.428460182141278e-06
5.692978815544204e-06   2.700245291886532e-06   -4.428460182141278e-06
5.692978815544204e-06   2.700245291886532e-06   -4.428460182141278e-06
6.538217918131631e-06   0.0   -6.389563754402288e-05
6.538217918131631e-06   0.0   -6.389563754402288e-05
6.538217918131631e-06   0.0   -6.389563754402288e-05
6.538217918131631e-06   0.0   -6.389563754402288e-05
-3.020103518915206e-05   4.483929098599438e-06   -5.353906491043058e-06
-3.020103518915206e-05   4.483929098599438e-06   -5.353906491043058e-06
-3.020103518915206e-05   4.483929098599438e-06   -5.353906491043058e-06
-3.020103518915206e-05   4.483929098599438e-06   -5.353906491043058e-06
-1.2149688650432457e-05   2.5310498923484924e-06   -3.4267756531825144e-05
-1.2149688650432457e-05   2.5310498923484924e-06   -3.4267756531825144e-05
-1.2149688650432457e-05   2.5310498923484924e-06   -3.4267756531825144e-05
-1.2149688650432457e-05   2.5310498923484924e-06   -3.4267756531825144e-05
4.27044190677636e-06   0.0   -6.427583641653932e-05
4.27044190677636e-06   0.0   -6.427583641653932e-05
4.27044190677636e-06   0.0   -6.427583641653932e-05
4.27044190677636e-06   0.0   -6.427583641653932e-05
4.449160761435799e-05   -5.218389841634536e-06   -3.715941422172776e-07
4.449160761435799e-05   -5.218389841634536e-06   -3.715941422172776e-07
4.449160761435799e-05   -5.218389841634536e-06   -3.715941422172776e-07
4.449160761435799e-05   -5.218389841634536e-06   -3.715941422172776e-07
4.4564965298915456e-05   0.0   -6.776708171273626e-05
4.4564965298915456e-05   0.0   -6.776708171273626e-05
4.4564965298915456e-05   0.0   -6.776708171273626e-05
4.4564965298915456e-05   0.0   -6.776708171273626e-05
5.0657809274138194e-06   -3.935114346076697e-06   4.2596084741248195e-07
5.0657809274138194e-06   -3.935114346076697e-06   4.2596084741248195e-07
5.0657809274138194e-06   -3.935114346076697e-06   4.2596084741248195e-07
5.0657809274138194e-06   -3.935114346076697e-06   4.2596084741248195e-07
2.4417703602845908e-05   -2.9093710801641166e-06   -3.244268957118852e-05
2.4417703602845908e-05   -2.9093710801641166e-06   -3.244268957118852e-05
2.4417703602845908e-05   -2.9093710801641166e-06   -3.244268957118852e-05
2.4417703602845908e-05   -2.9093710801641166e-06   -3.244268957118852e-05
5.0657809274138194e-06   0.0   -6.540601310509023e-05
5.0657809274138194e-06   0.0   -6.540601310509023e-05
5.0657809274138194e-06   0.0   -6.540601310509023e-05
5.0657809274138194e-06   0.0   -6.540601310509023e-05
4.4564965298915456e-05   -3.935114346076697e-06   -1.9351077602335444e-06
4.4564965298915456e-05   -3.935114346076697e-06   -1.9351077602335444e-06
4.4564965298915456e-05   -3.935114346076697e-06   -1.9351077602335444e-06
4.4564965298915456e-05   -3.935114346076697e-06   -1.9351077602335444e-06
4.4369139708315244e-05   0.0   -6.67993521365582e-05
4.4369139708315244e-05   0.0   -6.67993521365582e-05
4.4369139708315244e-05   0.0   -6.67993521365582e-05
4.4369139708315244e-05   0.0   -6.67993521365582e-05
5.692978815544204e-06   -2.4776698280815746e-06   -8.524820850908748e-07
5.692978815544204e-06   -2.4776698280815746e-06   -8.524820850908748e-07
5.692978815544204e-06   -2.4776698280815746e-06   -8.524820850908748e-07
5.692978815544204e-06   -2.4776698280815746e-06   -8.524820850908748e-07
2.4717460317864532e-05   -1.161115859556647e-06   -3.3349883636739675e-05
2.4717460317864532e-05   -1.161115859556647e-06   -3.3349883636739675e-05
2.4717460317864532e-05   -1.161115859556647e-06   -3.3349883636739675e-05
2.4717460317864532e-05   -1.161115859556647e-06   -3.3349883636739675e-05
5.6929788155441995e-06   0.0   -6.531275023970921e-05
5.6929788155441995e-06   0.0   -6.531275023970921e-05
5.6929788155441995e-06   0.0   -6.531275023970921e-05
5.6929788155441995e-06   0.0   -6.531275023970921e-05
4.4369139708315244e-05   -2.4776698280815746e-06   -2.3390839819398165e-06
4.4369139708315244e-05   -2.4776698280815746e-06   -2.3390839819398165e-06
4.4369139708315244e-05   -2.4776698280815746e-06   -2.3390839819398165e-06
4.4369139708315244e-05   -2.4776698280815746e-06   -2.3390839819398165e-06
4.522367023923626e-05   0.0   -6.420697006959875e-05
4.522367023923626e-05   0.0   -6.420697006959875e-05
4.522367023923626e-05   0.0   -6.420697006959875e-05
4.522367023923626e-05   0.0   -6.420697006959875e-05
6.538217918131642e-06   -5.188875426262641e-07   5.801163244846969e-07
6.538217918131642e-06   -5.188875426262641e-07   5.801163244846969e-07
6.538217918131642e-06   -5.188875426262641e-07   5.801163244846969e-07
6.538217918131642e-06   -5.188875426262641e-07   5.801163244846969e-07
2.545832452739021e-05   9.214834750921079e-07   -3.181761730157725e-05
2.545832452739021e-05   9.214834750921079e-07   -3.181761730157725e-05
2.545832452739021e-05   9.214834750921079e-07   -3.181761730157725e-05
2.545832452739021e-05   9.214834750921079e-07   -3.181761730157725e-05
4.449160761435799e-05   0.0   -6.740687032152004e-05
4.449160761435799e-05   0.0   -6.740687032152004e-05
4.449160761435799e-05   0.0   -6.740687032152004e-05
4.449160761435799e-05   0.0   -6.740687032152004e-05
0.00010041572391739054   -1.3224721959967484e-05   1.7865157007554276e-05
0.00010041572391739054   -1.3224721959967484e-05   1.7865157007554276e-05
0.00010041572391739054   -1.3224721959967484e-05   1.7865157007554276e-05
0.00010041572391739054   -1.3224721959967484e-05   1.7865157007554276e-05
9.42990932338475e-05   0.0   -7.452018616348923e-05
9.42990932338475e-05   0.0   -7.452018616348923e-05
9.42990932338475e-05   0.0   -7.452018616348923e-05
9.42990932338475e-05   0.0   -7.452018616348923e-05
4.4564965298915456e-05   -1.1255174084588297e-05   1.5123131512150451e-05
4.4564965298915456e-05   -1.1255174084588297e-05   1.5123131512150451e-05
4.4564965298915456e-05   -1.1255174084588297e-05   1.5123131512150451e-05
4.4564965298915456e-05   -1.1255174084588297e-05   1.5123131512150451e-05
6.939535042410275e-05   -5.927763201641004e-06   -2.945729022626335e-05
6.939535042410275e-05   -5.927763201641004e-06   -2.945729022626335e-05
6.939535042410275e-05   -5.927763201641004e-06   -2.945729022626335e-05
6.939535042410275e-05   -5.927763201641004e-06   -2.945729022626335e-05
4.4564965298915415e-05   0.0   -6.77670817127362e-05
4.4564965298915415e-05   0.0   -6.77670817127362e-05
4.4564965298915415e-05   0.0   -6.77670817127362e-05
4.4564965298915415e-05   0.0   -6.77670817127362e-05
9.429909323384717e-05   -1.1255174084588257e-05   8.370027061397451e-06
9.429909323384717e-05   -1.1255174084588257e-05   8.370027061397451e-06
9.429909323384717e-05   -1.1255174084588257e-05   8.370027061397451e-06
9.429909323384717e-05   -1.1255174084588257e-05   8.370027061397451e-06
9.147622973433539e-05   0.0   -7.297081633630468e-05
9.147622973433539e-05   0.0   -7.297081633630468e-05
9.147622973433539e-05   0.0   -7.297081633630468e-05
9.147622973433539e-05   0.0   -7.297081633630468e-05
4.4369139708315244e-05   -1.0285773666244107e-05   1.1712464573475351e-05
4.4369139708315244e-05   -1.0285773666244107e-05   1.1712464573475351e-05
4.4369139708315244e-05   -1.0285773666244107e-05   1.1712464573475351e-05
4.4369139708315244e-05   -1.0285773666244107e-05   1.1712464573475351e-05
6.802059751662539e-05   -4.336445519640359e-06   -3.127622866167045e-05
6.802059751662539e-05   -4.336445519640359e-06   -3.127622866167045e-05
6.802059751662539e-05   -4.336445519640359e-06   -3.127622866167045e-05
6.802059751662539e-05   -4.336445519640359e-06   -3.127622866167045e-05
4.4369139708315244e-05   0.0   -6.67993521365582e-05
4.4369139708315244e-05   0.0   -6.67993521365582e-05
4.4369139708315244e-05   0.0   -6.67993521365582e-05
4.4369139708315244e-05   0.0   -6.67993521365582e-05
9.147622973433507e-05   -1.0285773666244066e-05   5.541000373728846e-06
9.147622973433507e-05   -1.0285773666244066e-05   5.541000373728846e-06
9.147622973433507e-05   -1.0285773666244066e-05   5.541000373728846e-06
9.147622973433507e-05   -1.0285773666244066e-05   5.541000373728846e-06
8.72772469741758e-05   0.0   -6.900572477574306e-05
8.72772469741758e-05   0.0   -6.900572477574306e-05
8.72772469741758e-05   0.0   -6.900572477574306e-05
8.72772469741758e-05   0.0   -6.900572477574306e-05
4.522367023923626e-05   -7.997924510240727e-06   5.882324488634065e-06
4.522367023923626e-05   -7.997924510240727e-06   5.882324488634065e-06
4.522367023923626e-05   -7.997924510240727e-06   5.882324488634065e-06
4.522367023923626e-05   -7.997924510240727e-06   5.882324488634065e-06
6.58231933412456e-05   -1.8386438659874819e-06   -3.214578240126675e-05
6.58231933412456e-05   -1.8386438659874819e-06   -3.214578240126675e-05
6.58231933412456e-05   -1.8386438659874819e-06   -3.214578240126675e-05
6.58231933412456e-05   -1.8386438659874819e-06   -3.214578240126675e-05
-9.821110394649422e-05   1.2541594093521259e-05   -6.440486402494995e-05
-9.821110394649422e-05   1.2541594093521259e-05   -6.440486402494995e-05
-9.821110394649422e-05   1.2541594093521259e-05   -6.440486402494995e-05
-9.821110394649422e-05   1.2541594093521259e-05   -6.440486402494995e-05