<?xml version="1.0"?> 
<VTKFile type="UnstructuredGrid"> 
   <UnstructuredGrid> 
      <Piece NumberOfPoints="6000"  NumberOfCells="1500">  
          <Points>  
             <DataArray type="Float64" NumberOfComponents="3" format="ascii">   
-500.0   0.0   0.0
-450.0   0.0   0.0
-500.0   30.0   0.0
-500.0   0.0   16.666666666666668
-450.0   0.0   0.0
-450.0   30.0   0.0
-500.0   30.0   0.0
-450.0   30.0   16.666666666666668
-500.0   0.0   16.666666666666668
-500.0   30.0   16.666666666666668
-450.0   30.0   16.666666666666668
-500.0   30.0   0.0
-500.0   0.0   16.666666666666668
-450.0   30.0   16.666666666666668
-450.0   0.0   16.666666666666668
-450.0   0.0   0.0
-500.0   0.0   16.666666666666668
-450.0   30.0   16.666666666666668
-450.0   0.0   0.0
-500.0   30.0   0.0
-500.0   0.0   16.666666666666668
-450.0   0.0   16.666666666666668
-500.0   30.0   16.666666666666668
-500.0   0.0   33.333333333333336
-450.0   0.0   16.666666666666668
-450.0   30.0   16.666666666666668
-500.0   30.0   16.666666666666668
-450.0   30.0   33.333333333333336
-500.0   0.0   33.333333333333336
-500.0   30.0   33.333333333333336
-450.0   30.0   33.333333333333336
-500.0   30.0   16.666666666666668
-500.0   0.0   33.333333333333336
-450.0   30.0   33.333333333333336
-450.0   0.0   33.333333333333336
-450.0   0.0   16.666666666666668
-500.0   0.0   33.333333333333336
-450.0   30.0   33.333333333333336
-450.0   0.0   16.666666666666668
-500.0   30.0   16.666666666666668
-500.0   0.0   33.333333333333336
-450.0   0.0   33.333333333333336
-500.0   30.0   33.333333333333336
-500.0   0.0   50.0
-450.0   0.0   33.333333333333336
-450.0   30.0   33.333333333333336
-500.0   30.0   33.333333333333336
-450.0   30.0   50.0
-500.0   0.0   50.0
-500.0   30.0   50.0
-450.0   30.0   50.0
-500.0   30.0   33.333333333333336
-500.0   0.0   50.0
-450.0   30.0   50.0
-450.0   0.0   50.0
-450.0   0.0   33.333333333333336
-500.0   0.0   50.0
-450.0   30.0   50.0
-450.0   0.0   33.333333333333336
-500.0   30.0   33.333333333333336
-500.0   30.0   0.0
-450.0   30.0   0.0
-500.0   60.0   0.0
-500.0   30.0   16.666666666666668
-450.0   30.0   0.0
-450.0   60.0   0.0
-500.0   60.0   0.0
-450.0   60.0   16.666666666666668
-500.0   30.0   16.666666666666668
-500.0   60.0   16.666666666666668
-450.0   60.0   16.666666666666668
-500.0   60.0   0.0
-500.0   30.0   16.666666666666668
-450.0   60.0   16.666666666666668
-450.0   30.0   16.666666666666668
-450.0   30.0   0.0
-500.0   30.0   16.666666666666668
-450.0   60.0   16.666666666666668
-450.0   30.0   0.0
-500.0   60.0   0.0
-500.0   30.0   16.666666666666668
-450.0   30.0   16.666666666666668
-500.0   60.0   16.666666666666668
-500.0   30.0   33.333333333333336
-450.0   30.0   16.666666666666668
-450.0   60.0   16.666666666666668
-500.0   60.0   16.666666666666668
-450.0   60.0   33.333333333333336
-500.0   30.0   33.333333333333336
-500.0   60.0   33.333333333333336
-450.0   60.0   33.333333333333336
-500.0   60.0   16.666666666666668
-500.0   30.0   33.333333333333336
-450.0   60.0   33.333333333333336
-450.0   30.0   33.333333333333336
-450.0   30.0   16.666666666666668
-500.0   30.0   33.333333333333336
-450.0   60.0   33.333333333333336
-450.0   30.0   16.666666666666668
-500.0   60.0   16.666666666666668
-500.0   30.0   33.333333333333336
-450.0   30.0   33.333333333333336
-500.0   60.0   33.333333333333336
-500.0   30.0   50.0
-450.0   30.0   33.333333333333336
-450.0   60.0   33.333333333333336
-500.0   60.0   33.333333333333336
-450.0   60.0   50.0
-500.0   30.0   50.0
-500.0   60.0   50.0
-450.0   60.0   50.0
-500.0   60.0   33.333333333333336
-500.0   30.0   50.0
-450.0   60.0   50.0
-450.0   30.0   50.0
-450.0   30.0   33.333333333333336
-500.0   30.0   50.0
-450.0   60.0   50.0
-450.0   30.0   33.333333333333336
-500.0   60.0   33.333333333333336
-500.0   60.0   0.0
-450.0   60.0   0.0
-500.0   90.0   0.0
-500.0   60.0   16.666666666666668
-450.0   60.0   0.0
-450.0   90.0   0.0
-500.0   90.0   0.0
-450.0   90.0   16.666666666666668
-500.0   60.0   16.666666666666668
-500.0   90.0   16.666666666666668
-450.0   90.0   16.666666666666668
-500.0   90.0   0.0
-500.0   60.0   16.666666666666668
-450.0   90.0   16.666666666666668
-450.0   60.0   16.666666666666668
-450.0   60.0   0.0
-500.0   60.0   16.666666666666668
-450.0   90.0   16.666666666666668
-450.0   60.0   0.0
-500.0   90.0   0.0
-500.0   60.0   16.666666666666668
-450.0   60.0   16.666666666666668
-500.0   90.0   16.666666666666668
-500.0   60.0   33.333333333333336
-450.0   60.0   16.666666666666668
-450.0   90.0   16.666666666666668
-500.0   90.0   16.666666666666668
-450.0   90.0   33.333333333333336
-500.0   60.0   33.333333333333336
-500.0   90.0   33.333333333333336
-450.0   90.0   33.333333333333336
-500.0   90.0   16.666666666666668
-500.0   60.0   33.333333333333336
-450.0   90.0   33.333333333333336
-450.0   60.0   33.333333333333336
-450.0   60.0   16.666666666666668
-500.0   60.0   33.333333333333336
-450.0   90.0   33.333333333333336
-450.0   60.0   16.666666666666668
-500.0   90.0   16.666666666666668
-500.0   60.0   33.333333333333336
-450.0   60.0   33.333333333333336
-500.0   90.0   33.333333333333336
-500.0   60.0   50.0
-450.0   60.0   33.333333333333336
-450.0   90.0   33.333333333333336
-500.0   90.0   33.333333333333336
-450.0   90.0   50.0
-500.0   60.0   50.0
-500.0   90.0   50.0
-450.0   90.0   50.0
-500.0   90.0   33.333333333333336
-500.0   60.0   50.0
-450.0   90.0   50.0
-450.0   60.0   50.0
-450.0   60.0   33.333333333333336
-500.0   60.0   50.0
-450.0   90.0   50.0
-450.0   60.0   33.333333333333336
-500.0   90.0   33.333333333333336
-500.0   90.0   0.0
-450.0   90.0   0.0
-500.0   120.0   0.0
-500.0   90.0   16.666666666666668
-450.0   90.0   0.0
-450.0   120.0   0.0
-500.0   120.0   0.0
-450.0   120.0   16.666666666666668
-500.0   90.0   16.666666666666668
-500.0   120.0   16.666666666666668
-450.0   120.0   16.666666666666668
-500.0   120.0   0.0
-500.0   90.0   16.666666666666668
-450.0   120.0   16.666666666666668
-450.0   90.0   16.666666666666668
-450.0   90.0   0.0
-500.0   90.0   16.666666666666668
-450.0   120.0   16.666666666666668
-450.0   90.0   0.0
-500.0   120.0   0.0
-500.0   90.0   16.666666666666668
-450.0   90.0   16.666666666666668
-500.0   120.0   16.666666666666668
-500.0   90.0   33.333333333333336
-450.0   90.0   16.666666666666668
-450.0   120.0   16.666666666666668
-500.0   120.0   16.666666666666668
-450.0   120.0   33.333333333333336
-500.0   90.0   33.333333333333336
-500.0   120.0   33.333333333333336
-450.0   120.0   33.333333333333336
-500.0   120.0   16.666666666666668
-500.0   90.0   33.333333333333336
-450.0   120.0   33.333333333333336
-450.0   90.0   33.333333333333336
-450.0   90.0   16.666666666666668
-500.0   90.0   33.333333333333336
-450.0   120.0   33.333333333333336
-450.0   90.0   16.666666666666668
-500.0   120.0   16.666666666666668
-500.0   90.0   33.333333333333336
-450.0   90.0   33.333333333333336
-500.0   120.0   33.333333333333336
-500.0   90.0   50.0
-450.0   90.0   33.333333333333336
-450.0   120.0   33.333333333333336
-500.0   120.0   33.333333333333336
-450.0   120.0   50.0
-500.0   90.0   50.0
-500.0   120.0   50.0
-450.0   120.0   50.0
-500.0   120.0   33.333333333333336
-500.0   90.0   50.0
-450.0   120.0   50.0
-450.0   90.0   50.0
-450.0   90.0   33.333333333333336
-500.0   90.0   50.0
-450.0   120.0   50.0
-450.0   90.0   33.333333333333336
-500.0   120.0   33.333333333333336
-500.0   120.0   0.0
-450.0   120.0   0.0
-500.0   150.0   0.0
-500.0   120.0   16.666666666666668
-450.0   120.0   0.0
-450.0   150.0   0.0
-500.0   150.0   0.0
-450.0   150.0   16.666666666666668
-500.0   120.0   16.666666666666668
-500.0   150.0   16.666666666666668
-450.0   150.0   16.666666666666668
-500.0   150.0   0.0
-500.0   120.0   16.666666666666668
-450.0   150.0   16.666666666666668
-450.0   120.0   16.666666666666668
-450.0   120.0   0.0
-500.0   120.0   16.666666666666668
-450.0   150.0   16.666666666666668
-450.0   120.0   0.0
-500.0   150.0   0.0
-500.0   120.0   16.666666666666668
-450.0   120.0   16.666666666666668
-500.0   150.0   16.666666666666668
-500.0   120.0   33.333333333333336
-450.0   120.0   16.666666666666668
-450.0   150.0   16.666666666666668
-500.0   150.0   16.666666666666668
-450.0   150.0   33.333333333333336
-500.0   120.0   33.333333333333336
-500.0   150.0   33.333333333333336
-450.0   150.0   33.333333333333336
-500.0   150.0   16.666666666666668
-500.0   120.0   33.333333333333336
-450.0   150.0   33.333333333333336
-450.0   120.0   33.333333333333336
-450.0   120.0   16.666666666666668
-500.0   120.0   33.333333333333336
-450.0   150.0   33.333333333333336
-450.0   120.0   16.666666666666668
-500.0   150.0   16.666666666666668
-500.0   120.0   33.333333333333336
-450.0   120.0   33.333333333333336
-500.0   150.0   33.333333333333336
-500.0   120.0   50.0
-450.0   120.0   33.333333333333336
-450.0   150.0   33.333333333333336
-500.0   150.0   33.333333333333336
-450.0   150.0   50.0
-500.0   120.0   50.0
-500.0   150.0   50.0
-450.0   150.0   50.0
-500.0   150.0   33.333333333333336
-500.0   120.0   50.0
-450.0   150.0   50.0
-450.0   120.0   50.0
-450.0   120.0   33.333333333333336
-500.0   120.0   50.0
-450.0   150.0   50.0
-450.0   120.0   33.333333333333336
-500.0   150.0   33.333333333333336
-450.0   0.0   0.0
-400.0   0.0   0.0
-450.0   30.0   0.0
-450.0   0.0   16.666666666666668
-400.0   0.0   0.0
-400.0   30.0   0.0
-450.0   30.0   0.0
-400.0   30.0   16.666666666666668
-450.0   0.0   16.666666666666668
-450.0   30.0   16.666666666666668
-400.0   30.0   16.666666666666668
-450.0   30.0   0.0
-450.0   0.0   16.666666666666668
-400.0   30.0   16.666666666666668
-400.0   0.0   16.666666666666668
-400.0   0.0   0.0
-450.0   0.0   16.666666666666668
-400.0   30.0   16.666666666666668
-400.0   0.0   0.0
-450.0   30.0   0.0
-450.0   0.0   16.666666666666668
-400.0   0.0   16.666666666666668
-450.0   30.0   16.666666666666668
[...]
          <PointData>  
             <DataArray type="Float64" NumberOfComponents="3" Name="Strains" format="ascii">   
-2.5528758638571915e-05   0.0   -1.694577054644508e-05
-2.5528758638571915e-05   0.0   -1.694577054644508e-05
-2.5528758638571915e-05   0.0   -1.694577054644508e-05
-2.5528758638571915e-05   0.0   -1.694577054644508e-05
-1.6225530274966954e-05   2.8027264975201436e-06   2.4124595807524656e-07
-1.6225530274966954e-05   2.8027264975201436e-06   2.4124595807524656e-07
-1.6225530274966954e-05   2.8027264975201436e-06   2.4124595807524656e-07
-1.6225530274966954e-05   2.8027264975201436e-06   2.4124595807524656e-07
-1.5891603429222007e-05   0.0   -1.6018646170483658e-05
-1.5891603429222007e-05   0.0   -1.6018646170483658e-05
-1.5891603429222007e-05   0.0   -1.6018646170483658e-05
-1.5891603429222007e-05   0.0   -1.6018646170483658e-05
-2.6700930800831043e-05   3.3755191901124932e-06   -2.841206520269292e-08
-2.6700930800831043e-05   3.3755191901124932e-06   -2.841206520269292e-08
-2.6700930800831043e-05   3.3755191901124932e-06   -2.841206520269292e-08
-2.6700930800831043e-05   3.3755191901124932e-06   -2.841206520269292e-08
-2.0710181033896925e-05   7.726036466345182e-07   -8.451245684006092e-06
-2.0710181033896925e-05   7.726036466345182e-07   -8.451245684006092e-06
-2.0710181033896925e-05   7.726036466345182e-07   -8.451245684006092e-06
-2.0710181033896925e-05   7.726036466345182e-07   -8.451245684006092e-06
-2.670093080083109e-05   0.0   -1.8043957684551158e-05
-2.670093080083109e-05   0.0   -1.8043957684551158e-05
-2.670093080083109e-05   0.0   -1.8043957684551158e-05
-2.670093080083109e-05   0.0   -1.8043957684551158e-05
-1.5891603429222007e-05   3.3755191901124966e-06   1.996899448864807e-06
-1.5891603429222007e-05   3.3755191901124966e-06   1.996899448864807e-06
-1.5891603429222007e-05   3.3755191901124966e-06   1.996899448864807e-06
-1.5891603429222007e-05   3.3755191901124966e-06   1.996899448864807e-06
-1.5922321811396414e-05   0.0   -1.640693150301827e-05
-1.5922321811396414e-05   0.0   -1.640693150301827e-05
-1.5922321811396414e-05   0.0   -1.640693150301827e-05
-1.5922321811396414e-05   0.0   -1.640693150301827e-05
-2.7517663368397632e-05   3.6196570175015753e-06   7.46843548149554e-07
-2.7517663368397632e-05   3.6196570175015753e-06   7.46843548149554e-07
-2.7517663368397632e-05   3.6196570175015753e-06   7.46843548149554e-07
-2.7517663368397632e-05   3.6196570175015753e-06   7.46843548149554e-07
-2.1311626306113715e-05   1.3641884846107393e-06   -8.243270435922461e-06
-2.1311626306113715e-05   1.3641884846107393e-06   -8.243270435922461e-06
-2.1311626306113715e-05   1.3641884846107393e-06   -8.243270435922461e-06
-2.1311626306113715e-05   1.3641884846107393e-06   -8.243270435922461e-06
-2.751766336839768e-05   0.0   -1.8578725713519217e-05
-2.751766336839768e-05   0.0   -1.8578725713519217e-05
-2.751766336839768e-05   0.0   -1.8578725713519217e-05
-2.751766336839768e-05   0.0   -1.8578725713519217e-05
-1.5922321811396414e-05   3.619657017501582e-06   2.9186377586505012e-06
-1.5922321811396414e-05   3.619657017501582e-06   2.9186377586505012e-06
-1.5922321811396414e-05   3.619657017501582e-06   2.9186377586505012e-06
-1.5922321811396414e-05   3.619657017501582e-06   2.9186377586505012e-06
-1.5898059456590495e-05   0.0   -1.6508928572902335e-05
-1.5898059456590495e-05   0.0   -1.6508928572902335e-05
-1.5898059456590495e-05   0.0   -1.6508928572902335e-05
-1.5898059456590495e-05   0.0   -1.6508928572902335e-05
-2.9291121793442683e-05   4.133826614414863e-06   3.3325460198691312e-06
-2.9291121793442683e-05   4.133826614414863e-06   3.3325460198691312e-06
-2.9291121793442683e-05   4.133826614414863e-06   3.3325460198691312e-06
-2.9291121793442683e-05   4.133826614414863e-06   3.3325460198691312e-06
-2.170786141249405e-05   1.7248309505140675e-06   -7.860823883371434e-06
-2.170786141249405e-05   1.7248309505140675e-06   -7.860823883371434e-06
-2.170786141249405e-05   1.7248309505140675e-06   -7.860823883371434e-06
-2.170786141249405e-05   1.7248309505140675e-06   -7.860823883371434e-06
-1.622553027496698e-05   0.0   -1.5264134647932992e-05
-1.622553027496698e-05   0.0   -1.5264134647932992e-05
-1.622553027496698e-05   0.0   -1.5264134647932992e-05
-1.622553027496698e-05   0.0   -1.5264134647932992e-05
-7.4054984065417276e-06   1.0230348251086106e-06   4.973936117425128e-08
-7.4054984065417276e-06   1.0230348251086106e-06   4.973936117425128e-08
-7.4054984065417276e-06   1.0230348251086106e-06   4.973936117425128e-08
-7.4054984065417276e-06   1.0230348251086106e-06   4.973936117425128e-08
-7.108762416089033e-06   0.0   -1.5139740745717044e-05
-7.108762416089033e-06   0.0   -1.5139740745717044e-05
-7.108762416089033e-06   0.0   -1.5139740745717044e-05
-7.108762416089033e-06   0.0   -1.5139740745717044e-05
-1.5891603429222007e-05   1.4648423746110222e-06   -1.3805778152620377e-06
-1.5891603429222007e-05   1.4648423746110222e-06   -1.3805778152620377e-06
-1.5891603429222007e-05   1.4648423746110222e-06   -1.3805778152620377e-06
-1.5891603429222007e-05   1.4648423746110222e-06   -1.3805778152620377e-06
-1.1667146345527986e-05   1.036615851799558e-07   -7.604631147760044e-06
-1.1667146345527986e-05   1.036615851799558e-07   -7.604631147760044e-06
-1.1667146345527986e-05   1.036615851799558e-07   -7.604631147760044e-06
-1.1667146345527986e-05   1.036615851799558e-07   -7.604631147760044e-06
-1.5891603429221993e-05   0.0   -1.6018646170483645e-05
-1.5891603429221993e-05   0.0   -1.6018646170483645e-05
-1.5891603429221993e-05   0.0   -1.6018646170483645e-05
-1.5891603429221993e-05   0.0   -1.6018646170483645e-05
-7.108762416089033e-06   1.4648423746110222e-06   -5.016723904954234e-07
-7.108762416089033e-06   1.4648423746110222e-06   -5.016723904954234e-07
-7.108762416089033e-06   1.4648423746110222e-06   -5.016723904954234e-07
-7.108762416089033e-06   1.4648423746110222e-06   -5.016723904954234e-07
-6.936343132387711e-06   0.0   -1.5326869693171092e-05
-6.936343132387711e-06   0.0   -1.5326869693171092e-05
-6.936343132387711e-06   0.0   -1.5326869693171092e-05
-6.936343132387711e-06   0.0   -1.5326869693171092e-05
-1.5922321811396414e-05   1.8001030164119594e-06   -1.4303003713371016e-06
-1.5922321811396414e-05   1.8001030164119594e-06   -1.4303003713371016e-06
-1.5922321811396414e-05   1.8001030164119594e-06   -1.4303003713371016e-06
-1.5922321811396414e-05   1.8001030164119594e-06   -1.4303003713371016e-06
-1.1413973280804836e-05   5.76480397760469e-07   -8.21004101779877e-06
-1.1413973280804836e-05   5.76480397760469e-07   -8.21004101779877e-06
-1.1413973280804836e-05   5.76480397760469e-07   -8.21004101779877e-06
-1.1413973280804836e-05   5.76480397760469e-07   -8.21004101779877e-06
-1.5922321811396414e-05   0.0   -1.640693150301827e-05
-1.5922321811396414e-05   0.0   -1.640693150301827e-05
-1.5922321811396414e-05   0.0   -1.640693150301827e-05
-1.5922321811396414e-05   0.0   -1.640693150301827e-05
-6.936343132387711e-06   1.8001030164119594e-06   -3.502385614899256e-07
-6.936343132387711e-06   1.8001030164119594e-06   -3.502385614899256e-07
-6.936343132387711e-06   1.8001030164119594e-06   -3.502385614899256e-07
-6.936343132387711e-06   1.8001030164119594e-06   -3.502385614899256e-07
-6.7770128348064315e-06   0.0   -1.5250144078619821e-05
-6.7770128348064315e-06   0.0   -1.5250144078619821e-05
-6.7770128348064315e-06   0.0   -1.5250144078619821e-05
-6.7770128348064315e-06   0.0   -1.5250144078619821e-05
-1.5898059456590455e-05   2.097974157137495e-06   -1.3071842032622214e-06
-1.5898059456590455e-05   2.097974157137495e-06   -1.3071842032622214e-06
-1.5898059456590455e-05   2.097974157137495e-06   -1.3071842032622214e-06
-1.5898059456590455e-05   2.097974157137495e-06   -1.3071842032622214e-06
-1.134966732310142e-05   9.63989520332029e-07   -8.207446976994059e-06
-1.134966732310142e-05   9.63989520332029e-07   -8.207446976994059e-06
-1.134966732310142e-05   9.63989520332029e-07   -8.207446976994059e-06
-1.134966732310142e-05   9.63989520332029e-07   -8.207446976994059e-06
-7.40549840654174e-06   0.0   -1.4650313752867825e-05
-7.40549840654174e-06   0.0   -1.4650313752867825e-05
-7.40549840654174e-06   0.0   -1.4650313752867825e-05
-7.40549840654174e-06   0.0   -1.4650313752867825e-05
9.157255546268295e-07   -1.3475004979049808e-07   -8.624571807944933e-07
9.157255546268295e-07   -1.3475004979049808e-07   -8.624571807944933e-07
9.157255546268295e-07   -1.3475004979049808e-07   -8.624571807944933e-07
9.157255546268295e-07   -1.3475004979049808e-07   -8.624571807944933e-07
1.111667207836889e-06   0.0   -1.4982953037876811e-05
1.111667207836889e-06   0.0   -1.4982953037876811e-05
1.111667207836889e-06   0.0   -1.4982953037876811e-05
1.111667207836889e-06   0.0   -1.4982953037876811e-05
-7.108762416089033e-06   2.613128464003016e-07   -1.4390247058405034e-06
-7.108762416089033e-06   2.613128464003016e-07   -1.4390247058405034e-06
-7.108762416089033e-06   2.613128464003016e-07   -1.4390247058405034e-06
-7.108762416089033e-06   2.613128464003016e-07   -1.4390247058405034e-06
-3.1469155993524185e-06   -2.771994041741987e-07   -7.71899538339013e-06
-3.1469155993524185e-06   -2.771994041741987e-07   -7.71899538339013e-06
-3.1469155993524185e-06   -2.771994041741987e-07   -7.71899538339013e-06
-3.1469155993524185e-06   -2.771994041741987e-07   -7.71899538339013e-06
-7.108762416089033e-06   0.0   -1.5139740745717044e-05
-7.108762416089033e-06   0.0   -1.5139740745717044e-05
-7.108762416089033e-06   0.0   -1.5139740745717044e-05
-7.108762416089033e-06   0.0   -1.5139740745717044e-05
1.1116672078368908e-06   2.613128464003016e-07   -1.2822369980003193e-06
1.1116672078368908e-06   2.613128464003016e-07   -1.2822369980003193e-06
1.1116672078368908e-06   2.613128464003016e-07   -1.2822369980003193e-06
1.1116672078368908e-06   2.613128464003016e-07   -1.2822369980003193e-06
1.2681802743198583e-06   0.0   -1.4960434973859593e-05
1.2681802743198583e-06   0.0   -1.4960434973859593e-05
1.2681802743198583e-06   0.0   -1.4960434973859593e-05
1.2681802743198583e-06   0.0   -1.4960434973859593e-05
-6.936343132387699e-06   6.107245321857895e-07   -1.6526640153251386e-06
-6.936343132387699e-06   6.107245321857895e-07   -1.6526640153251386e-06
-6.936343132387699e-06   6.107245321857895e-07   -1.6526640153251386e-06
-6.936343132387699e-06   6.107245321857895e-07   -1.6526640153251386e-06
-2.9202910708845864e-06   1.4942147654785432e-07   -8.069302284447582e-06
-2.9202910708845864e-06   1.4942147654785432e-07   -8.069302284447582e-06
-2.9202910708845864e-06   1.4942147654785432e-07   -8.069302284447582e-06
-2.9202910708845864e-06   1.4942147654785432e-07   -8.069302284447582e-06
-6.936343132387711e-06   0.0   -1.5326869693171092e-05
-6.936343132387711e-06   0.0   -1.5326869693171092e-05
-6.936343132387711e-06   0.0   -1.5326869693171092e-05
-6.936343132387711e-06   0.0   -1.5326869693171092e-05
1.2681802743198604e-06   6.107245321857928e-07   -1.2862292960136682e-06
1.2681802743198604e-06   6.107245321857928e-07   -1.2862292960136682e-06
1.2681802743198604e-06   6.107245321857928e-07   -1.2862292960136682e-06
1.2681802743198604e-06   6.107245321857928e-07   -1.2862292960136682e-06
1.4740891863784153e-06   0.0   -1.4641387646052969e-05
1.4740891863784153e-06   0.0   -1.4641387646052969e-05
1.4740891863784153e-06   0.0   -1.4641387646052969e-05
1.4740891863784153e-06   0.0   -1.4641387646052969e-05
-6.777012834806426e-06   1.0145940542780668e-06   -1.4983073766450734e-06
-6.777012834806426e-06   1.0145940542780668e-06   -1.4983073766450734e-06
-6.777012834806426e-06   1.0145940542780668e-06   -1.4983073766450734e-06
-6.777012834806426e-06   1.0145940542780668e-06   -1.4983073766450734e-06
-2.731126973004642e-06   5.712350392650826e-07   -7.975435070640251e-06
-2.731126973004642e-06   5.712350392650826e-07   -7.975435070640251e-06
-2.731126973004642e-06   5.712350392650826e-07   -7.975435070640251e-06
-2.731126973004642e-06   5.712350392650826e-07   -7.975435070640251e-06
9.157255546268311e-07   0.0   -1.4731163782742124e-05
9.157255546268311e-07   0.0   -1.4731163782742124e-05
9.157255546268311e-07   0.0   -1.4731163782742124e-05
9.157255546268311e-07   0.0   -1.4731163782742124e-05
9.960283126514447e-06   -1.1683137618330228e-06   -3.5788942002923423e-07
9.960283126514447e-06   -1.1683137618330228e-06   -3.5788942002923423e-07
9.960283126514447e-06   -1.1683137618330228e-06   -3.5788942002923423e-07
9.960283126514447e-06   -1.1683137618330228e-06   -3.5788942002923423e-07
9.995552690657536e-06   0.0   -1.5509021003000544e-05
9.995552690657536e-06   0.0   -1.5509021003000544e-05
9.995552690657536e-06   0.0   -1.5509021003000544e-05
9.995552690657536e-06   0.0   -1.5509021003000544e-05
1.1116672078368927e-06   -8.767799418727978e-07   -1.7647723317579345e-07
1.1116672078368927e-06   -8.767799418727978e-07   -1.7647723317579345e-07
1.1116672078368927e-06   -8.767799418727978e-07   -1.7647723317579345e-07
1.1116672078368927e-06   -8.767799418727978e-07   -1.7647723317579345e-07
5.455639122642183e-06   -6.482143502153502e-07   -7.553569779512409e-06
5.455639122642183e-06   -6.482143502153502e-07   -7.553569779512409e-06
5.455639122642183e-06   -6.482143502153502e-07   -7.553569779512409e-06
5.455639122642183e-06   -6.482143502153502e-07   -7.553569779512409e-06
1.1116672078368927e-06   0.0   -1.4982953037876864e-05
1.1116672078368927e-06   0.0   -1.4982953037876864e-05
1.1116672078368927e-06   0.0   -1.4982953037876864e-05
1.1116672078368927e-06   0.0   -1.4982953037876864e-05
9.995552690657536e-06   -8.767799418727978e-07   -7.025451982994747e-07
9.995552690657536e-06   -8.767799418727978e-07   -7.025451982994747e-07
9.995552690657536e-06   -8.767799418727978e-07   -7.025451982994747e-07
9.995552690657536e-06   -8.767799418727978e-07   -7.025451982994747e-07
9.967874774132874e-06   0.0   -1.5287683830314414e-05
9.967874774132874e-06   0.0   -1.5287683830314414e-05
9.967874774132874e-06   0.0   -1.5287683830314414e-05
9.967874774132874e-06   0.0   -1.5287683830314414e-05
1.2681802743198604e-06   -5.454147607579946e-07   -4.609441408379315e-07
1.2681802743198604e-06   -5.454147607579946e-07   -4.609441408379315e-07
1.2681802743198604e-06   -5.454147607579946e-07   -4.609441408379315e-07
1.2681802743198604e-06   -5.454147607579946e-07   -4.609441408379315e-07
5.539770990984883e-06   -2.539423270312921e-07   -7.755145462182316e-06
5.539770990984883e-06   -2.539423270312921e-07   -7.755145462182316e-06
5.539770990984883e-06   -2.539423270312921e-07   -7.755145462182316e-06
5.539770990984883e-06   -2.539423270312921e-07   -7.755145462182316e-06
1.2681802743198593e-06   0.0   -1.4960434973859605e-05
1.2681802743198593e-06   0.0   -1.4960434973859605e-05
1.2681802743198593e-06   0.0   -1.4960434973859605e-05
1.2681802743198593e-06   0.0   -1.4960434973859605e-05
9.967874774132874e-06   -5.454147607579946e-07   -7.881929972927281e-07
9.967874774132874e-06   -5.454147607579946e-07   -7.881929972927281e-07
9.967874774132874e-06   -5.454147607579946e-07   -7.881929972927281e-07
9.967874774132874e-06   -5.454147607579946e-07   -7.881929972927281e-07
1.0175461959669731e-05   0.0   -1.47020212699947e-05
1.0175461959669731e-05   0.0   -1.47020212699947e-05
1.0175461959669731e-05   0.0   -1.47020212699947e-05
1.0175461959669731e-05   0.0   -1.47020212699947e-05
1.4740891863784178e-06   -1.0105603990284232e-07   -1.3909969056747566e-07
1.4740891863784178e-06   -1.0105603990284232e-07   -1.3909969056747566e-07
1.4740891863784178e-06   -1.0105603990284232e-07   -1.3909969056747566e-07
1.4740891863784178e-06   -1.0105603990284232e-07   -1.3909969056747566e-07
5.721821116994791e-06   2.1534475322076675e-07   -7.40849338413559e-06
5.721821116994791e-06   2.1534475322076675e-07   -7.40849338413559e-06
5.721821116994791e-06   2.1534475322076675e-07   -7.40849338413559e-06
5.721821116994791e-06   2.1534475322076675e-07   -7.40849338413559e-06
9.960283126514447e-06   0.0   -1.543215203984194e-05
9.960283126514447e-06   0.0   -1.543215203984194e-05
9.960283126514447e-06   0.0   -1.543215203984194e-05
9.960283126514447e-06   0.0   -1.543215203984194e-05
2.2579600095542572e-05   -2.97348227320209e-06   3.81595354461713e-06
2.2579600095542572e-05   -2.97348227320209e-06   3.81595354461713e-06
2.2579600095542572e-05   -2.97348227320209e-06   3.81595354461713e-06
2.2579600095542572e-05   -2.97348227320209e-06   3.81595354461713e-06
2.1228695575567922e-05   0.0   -1.702143278798065e-05
2.1228695575567922e-05   0.0   -1.702143278798065e-05
2.1228695575567922e-05   0.0   -1.702143278798065e-05
2.1228695575567922e-05   0.0   -1.702143278798065e-05
9.995552690657536e-06   -2.5206863083001785e-06   3.212883805183429e-06
9.995552690657536e-06   -2.5206863083001785e-06   3.212883805183429e-06
9.995552690657536e-06   -2.5206863083001785e-06   3.212883805183429e-06
9.995552690657536e-06   -2.5206863083001785e-06   3.212883805183429e-06
1.5594489351041185e-05   -1.3244006234489281e-06   -6.836448706366725e-06
1.5594489351041185e-05   -1.3244006234489281e-06   -6.836448706366725e-06
1.5594489351041185e-05   -1.3244006234489281e-06   -6.836448706366725e-06
1.5594489351041185e-05   -1.3244006234489281e-06   -6.836448706366725e-06
9.995552690657528e-06   0.0   -1.550902100300053e-05
9.995552690657528e-06   0.0   -1.550902100300053e-05
9.995552690657528e-06   0.0   -1.550902100300053e-05
9.995552690657528e-06   0.0   -1.550902100300053e-05
2.1228695575567848e-05   -2.5206863083001717e-06   1.7004720202033199e-06
2.1228695575567848e-05   -2.5206863083001717e-06   1.7004720202033199e-06
2.1228695575567848e-05   -2.5206863083001717e-06   1.7004720202033199e-06
2.1228695575567848e-05   -2.5206863083001717e-06   1.7004720202033199e-06
2.0612574270585328e-05   0.0   -1.6667713757683408e-05
2.0612574270585328e-05   0.0   -1.6667713757683408e-05
2.0612574270585328e-05   0.0   -1.6667713757683408e-05
2.0612574270585328e-05   0.0   -1.6667713757683408e-05
9.967874774132874e-06   -2.3000498789483244e-06   2.4534819971063426e-06
9.967874774132874e-06   -2.3000498789483244e-06   2.4534819971063426e-06
9.967874774132874e-06   -2.3000498789483244e-06   2.4534819971063426e-06
9.967874774132874e-06   -2.3000498789483244e-06   2.4534819971063426e-06
1.5304063480621423e-05   -9.655772955690554e-07   -7.2408493970688025e-06
1.5304063480621423e-05   -9.655772955690554e-07   -7.2408493970688025e-06
1.5304063480621423e-05   -9.655772955690554e-07   -7.2408493970688025e-06
1.5304063480621423e-05   -9.655772955690554e-07   -7.2408493970688025e-06
9.967874774132874e-06   0.0   -1.5287683830314414e-05
9.967874774132874e-06   0.0   -1.5287683830314414e-05
9.967874774132874e-06   0.0   -1.5287683830314414e-05
9.967874774132874e-06   0.0   -1.5287683830314414e-05
2.0612574270585256e-05   -2.3000498789483176e-06   1.0734520697373384e-06
2.0612574270585256e-05   -2.3000498789483176e-06   1.0734520697373384e-06
2.0612574270585256e-05   -2.3000498789483176e-06   1.0734520697373384e-06
2.0612574270585256e-05   -2.3000498789483176e-06   1.0734520697373384e-06
1.9684766826099235e-05   0.0   -1.576807343409372e-05
1.9684766826099235e-05   0.0   -1.576807343409372e-05
1.9684766826099235e-05   0.0   -1.576807343409372e-05
1.9684766826099235e-05   0.0   -1.576807343409372e-05
1.0175461959669731e-05   -1.7767536068317484e-06   1.146820174054529e-06
1.0175461959669731e-05   -1.7767536068317484e-06   1.146820174054529e-06
1.0175461959669731e-05   -1.7767536068317484e-06   1.146820174054529e-06
1.0175461959669731e-05   -1.7767536068317484e-06   1.146820174054529e-06
1.4826320800116072e-05   -4.003246698161135e-07   -7.430468588898747e-06
1.4826320800116072e-05   -4.003246698161135e-07   -7.430468588898747e-06
1.4826320800116072e-05   -4.003246698161135e-07   -7.430468588898747e-06
1.4826320800116072e-05   -4.003246698161135e-07   -7.430468588898747e-06
-2.2008279084305087e-05   2.802726497520137e-06   -1.4567431128886634e-05
-2.2008279084305087e-05   2.802726497520137e-06   -1.4567431128886634e-05