<?xml version="1.0"?> 
<VTKFile type="UnstructuredGrid"> 
   <UnstructuredGrid> 
      <Piece NumberOfPoints="6000"  NumberOfCells="1500">  
          <Points>  
             <DataArray type="Float64" NumberOfComponents="3" format="ascii">   
-500.0   0.0   0.0
-450.0   0.0   0.0
-500.0   30.0   0.0
-500.0   0.0   16.666666666666668
-450.0   0.0   0.0
-450.0   30.0   0.0
-500.0   30.0   0.0
-450.0   30.0   16.666666666666668
-500.0   0.0   16.666666666666668
-500.0   30.0   16.666666666666668
-450.0   30.0   16.666666666666668
-500.0   30.0   0.0
-500.0   0.0   16.666666666666668
-450.0   30.0   16.666666666666668
-450.0   0.0   16.666666666666668
-450.0   0.0   0.0
-500.0   0.0   16.666666666666668
-450.0   30.0   16.666666666666668
-450.0   0.0   0.0
-500.0   30.0   0.0
-500.0   0.0   16.666666666666668
-450.0   0.0   16.666666666666668
-500.0   30.0   16.666666666666668
-500.0   0.0   33.333333333333336
-450.0   0.0   16.666666666666668
-450.0   30.0   16.666666666666668
-500.0   30.0   16.666666666666668
-450.0   30.0   33.333333333333336
-500.0   0.0   33.333333333333336
-500.0   30.0   33.333333333333336
-450.0   30.0   33.333333333333336
-500.0   30.0   16.666666666666668
-500.0   0.0   33.333333333333336
-450.0   30.0   33.333333333333336
-450.0   0.0   33.333333333333336
-450.0   0.0   16.666666666666668
-500.0   0.0   33.333333333333336
-450.0   30.0   33.333333333333336
-450.0   0.0   16.666666666666668
-500.0   30.0   16.666666666666668
-500.0   0.0   33.333333333333336
-450.0   0.0   33.333333333333336
-500.0   30.0   33.333333333333336
-500.0   0.0   50.0
-450.0   0.0   33.333333333333336
-450.0   30.0   33.333333333333336
-500.0   30.0   33.333333333333336
-450.0   30.0   50.0
-500.0   0.0   50.0
-500.0   30.0   50.0
-450.0   30.0   50.0
-500.0   30.0   33.333333333333336
-500.0   0.0   50.0
-450.0   30.0   50.0
-450.0   0.0   50.0
-450.0   0.0   33.333333333333336
-500.0   0.0   50.0
-450.0   30.0   50.0
-450.0   0.0   33.333333333333336
-500.0   30.0   33.333333333333336
-500.0   30.0   0.0
-450.0   30.0   0.0
-500.0   60.0   0.0
-500.0   30.0   16.666666666666668
-450.0   30.0   0.0
-450.0   60.0   0.0
-500.0   60.0   0.0
-450.0   60.0   16.666666666666668
-500.0   30.0   16.666666666666668
-500.0   60.0   16.666666666666668
-450.0   60.0   16.666666666666668
-500.0   60.0   0.0
-500.0   30.0   16.666666666666668
-450.0   60.0   16.666666666666668
-450.0   30.0   16.666666666666668
-450.0   30.0   0.0
-500.0   30.0   16.666666666666668
-450.0   60.0   16.666666666666668
-450.0   30.0   0.0
-500.0   60.0   0.0
-500.0   30.0   16.666666666666668
-450.0   30.0   16.666666666666668
-500.0   60.0   16.666666666666668
-500.0   30.0   33.333333333333336
-450.0   30.0   16.666666666666668
-450.0   60.0   16.666666666666668
-500.0   60.0   16.666666666666668
-450.0   60.0   33.333333333333336
-500.0   30.0   33.333333333333336
-500.0   60.0   33.333333333333336
-450.0   60.0   33.333333333333336
-500.0   60.0   16.666666666666668
-500.0   30.0   33.333333333333336
-450.0   60.0   33.333333333333336
-450.0   30.0   33.333333333333336
-450.0   30.0   16.666666666666668
-500.0   30.0   33.333333333333336
-450.0   60.0   33.333333333333336
-450.0   30.0   16.666666666666668
-500.0   60.0   16.666666666666668
-500.0   30.0   33.333333333333336
-450.0   30.0   33.333333333333336
-500.0   60.0   33.333333333333336
-500.0   30.0   50.0
-450.0   30.0   33.333333333333336
-450.0   60.0   33.333333333333336
-500.0   60.0   33.333333333333336
-450.0   60.0   50.0
-500.0   30.0   50.0
-500.0   60.0   50.0
-450.0   60.0   50.0
-500.0   60.0   33.333333333333336
-500.0   30.0   50.0
-450.0   60.0   50.0
-450.0   30.0   50.0
-450.0   30.0   33.333333333333336
-500.0   30.0   50.0
-450.0   60.0   50.0
-450.0   30.0   33.333333333333336
-500.0   60.0   33.333333333333336
-500.0   60.0   0.0
-450.0   60.0   0.0
-500.0   90.0   0.0
-500.0   60.0   16.666666666666668
-450.0   60.0   0.0
-450.0   90.0   0.0
-500.0   90.0   0.0
-450.0   90.0   16.666666666666668
-500.0   60.0   16.666666666666668
-500.0   90.0   16.666666666666668
-450.0   90.0   16.666666666666668
-500.0   90.0   0.0
-500.0   60.0   16.666666666666668
-450.0   90.0   16.666666666666668
-450.0   60.0   16.666666666666668
-450.0   60.0   0.0
-500.0   60.0   16.666666666666668
-450.0   90.0   16.666666666666668
-450.0   60.0   0.0
-500.0   90.0   0.0
-500.0   60.0   16.666666666666668
-450.0   60.0   16.666666666666668
-500.0   90.0   16.666666666666668
-500.0   60.0   33.333333333333336
-450.0   60.0   16.666666666666668
-450.0   90.0   16.666666666666668
-500.0   90.0   16.666666666666668
-450.0   90.0   33.333333333333336
-500.0   60.0   33.333333333333336
-500.0   90.0   33.333333333333336
-450.0   90.0   33.333333333333336
-500.0   90.0   16.666666666666668
-500.0   60.0   33.333333333333336
-450.0   90.0   33.333333333333336
-450.0   60.0   33.333333333333336
-450.0   60.0   16.666666666666668
-500.0   60.0   33.333333333333336
-450.0   90.0   33.333333333333336
-450.0   60.0   16.666666666666668
-500.0   90.0   16.666666666666668
-500.0   60.0   33.333333333333336
-450.0   60.0   33.333333333333336
-500.0   90.0   33.333333333333336
-500.0   60.0   50.0
-450.0   60.0   33.333333333333336
-450.0   90.0   33.333333333333336
-500.0   90.0   33.333333333333336
-450.0   90.0   50.0
-500.0   60.0   50.0
-500.0   90.0   50.0
-450.0   90.0   50.0
-500.0   90.0   33.333333333333336
-500.0   60.0   50.0
-450.0   90.0   50.0
-450.0   60.0   50.0
-450.0   60.0   33.333333333333336
-500.0   60.0   50.0
-450.0   90.0   50.0
-450.0   60.0   33.333333333333336
-500.0   90.0   33.333333333333336
-500.0   90.0   0.0
-450.0   90.0   0.0
-500.0   120.0   0.0
-500.0   90.0   16.666666666666668
-450.0   90.0   0.0
-450.0   120.0   0.0
-500.0   120.0   0.0
-450.0   120.0   16.666666666666668
-500.0   90.0   16.666666666666668
-500.0   120.0   16.666666666666668
-450.0   120.0   16.666666666666668
-500.0   120.0   0.0
-500.0   90.0   16.666666666666668
-450.0   120.0   16.666666666666668
-450.0   90.0   16.666666666666668
-450.0   90.0   0.0
-500.0   90.0   16.666666666666668
-450.0   120.0   16.666666666666668
-450.0   90.0   0.0
-500.0   120.0   0.0
-500.0   90.0   16.666666666666668
-450.0   90.0   16.666666666666668
-500.0   120.0   16.666666666666668
-500.0   90.0   33.333333333333336
-450.0   90.0   16.666666666666668
-450.0   120.0   16.666666666666668
-500.0   120.0   16.666666666666668
-450.0   120.0   33.333333333333336
-500.0   90.0   33.333333333333336
-500.0   120.0   33.333333333333336
-450.0   120.0   33.333333333333336
-500.0   120.0   16.666666666666668
-500.0   90.0   33.333333333333336
-450.0   120.0   33.333333333333336
-450.0   90.0   33.333333333333336
-450.0   90.0   16.666666666666668
-500.0   90.0   33.333333333333336
-450.0   120.0   33.333333333333336
-450.0   90.0   16.666666666666668
-500.0   120.0   16.666666666666668
-500.0   90.0   33.333333333333336
-450.0   90.0   33.333333333333336
-500.0   120.0   33.333333333333336
-500.0   90.0   50.0
-450.0   90.0   33.333333333333336
-450.0   120.0   33.333333333333336
-500.0   120.0   33.333333333333336
-450.0   120.0   50.0
-500.0   90.0   50.0
-500.0   120.0   50.0
-450.0   120.0   50.0
-500.0   120.0   33.333333333333336
-500.0   90.0   50.0
-450.0   120.0   50.0
-450.0   90.0   50.0
-450.0   90.0   33.333333333333336
-500.0   90.0   50.0
-450.0   120.0   50.0
-450.0   90.0   33.333333333333336
-500.0   120.0   33.333333333333336
-500.0   120.0   0.0
-450.0   120.0   0.0
-500.0   150.0   0.0
-500.0   120.0   16.666666666666668
-450.0   120.0   0.0
-450.0   150.0   0.0
-500.0   150.0   0.0
-450.0   150.0   16.666666666666668
-500.0   120.0   16.666666666666668
-500.0   150.0   16.666666666666668
-450.0   150.0   16.666666666666668
-500.0   150.0   0.0
-500.0   120.0   16.666666666666668
-450.0   150.0   16.666666666666668
-450.0   120.0   16.666666666666668
-450.0   120.0   0.0
-500.0   120.0   16.666666666666668
-450.0   150.0   16.666666666666668
-450.0   120.0   0.0
-500.0   150.0   0.0
-500.0   120.0   16.666666666666668
-450.0   120.0   16.666666666666668
-500.0   150.0   16.666666666666668
-500.0   120.0   33.333333333333336
-450.0   120.0   16.666666666666668
-450.0   150.0   16.666666666666668
-500.0   150.0   16.666666666666668
-450.0   150.0   33.333333333333336
-500.0   120.0   33.333333333333336
-500.0   150.0   33.333333333333336
-450.0   150.0   33.333333333333336
-500.0   150.0   16.666666666666668
-500.0   120.0   33.333333333333336
-450.0   150.0   33.333333333333336
-450.0   120.0   33.333333333333336
-450.0   120.0   16.666666666666668
-500.0   120.0   33.333333333333336
-450.0   150.0   33.333333333333336
-450.0   120.0   16.666666666666668
-500.0   150.0   16.666666666666668
-500.0   120.0   33.333333333333336
-450.0   120.0   33.333333333333336
-500.0   150.0   33.333333333333336
-500.0   120.0   50.0
-450.0   120.0   33.333333333333336
-450.0   150.0   33.333333333333336
-500.0   150.0   33.333333333333336
-450.0   150.0   50.0
-500.0   120.0   50.0
-500.0   150.0   50.0
-450.0   150.0   50.0
-500.0   150.0   33.333333333333336
-500.0   120.0   50.0
-450.0   150.0   50.0
-450.0   120.0   50.0
-450.0   120.0   33.333333333333336
-500.0   120.0   50.0
-450.0   150.0   50.0
-450.0   120.0   33.333333333333336
-500.0   150.0   33.333333333333336
-450.0   0.0   0.0
-400.0   0.0   0.0
-450.0   30.0   0.0
-450.0   0.0   16.666666666666668
-400.0   0.0   0.0
-400.0   30.0   0.0
-450.0   30.0   0.0
-400.0   30.0   16.666666666666668
-450.0   0.0   16.666666666666668
-450.0   30.0   16.666666666666668
-400.0   30.0   16.666666666666668
-450.0   30.0   0.0
-450.0   0.0   16.666666666666668
-400.0   30.0   16.666666666666668
-400.0   0.0   16.666666666666668
-400.0   0.0   0.0
-450.0   0.0   16.666666666666668
-400.0   30.0   16.666666666666668
-400.0   0.0   0.0
-450.0   30.0   0.0
-450.0   0.0   16.666666666666668
-400.0   0.0   16.666666666666668
-450.0   30.0   16.666666666666668
[...]
          <PointData>  
             <DataArray type="Float64" NumberOfComponents="3" Name="Strains" format="ascii">   
-1.3011568811720898e-05   0.0   -8.76540063304336e-06
-1.3011568811720898e-05   0.0   -8.76540063304336e-06
-1.3011568811720898e-05   0.0   -8.76540063304336e-06
-1.3011568811720898e-05   0.0   -8.76540063304336e-06
-8.257168956740147e-06   1.4114596980913966e-06   5.474944112712077e-09
-8.257168956740147e-06   1.4114596980913966e-06   5.474944112712077e-09
-8.257168956740147e-06   1.4114596980913966e-06   5.474944112712077e-09
-8.257168956740147e-06   1.4114596980913966e-06   5.474944112712077e-09
-8.078434054844128e-06   0.0   -8.30255878515193e-06
-8.078434054844128e-06   0.0   -8.30255878515193e-06
-8.078434054844128e-06   0.0   -8.30255878515193e-06
-8.078434054844128e-06   0.0   -8.30255878515193e-06
-1.3598135785058823e-05   1.7081239535861017e-06   -1.279302736123956e-07
-1.3598135785058823e-05   1.7081239535861017e-06   -1.279302736123956e-07
-1.3598135785058823e-05   1.7081239535861017e-06   -1.279302736123956e-07
-1.3598135785058823e-05   1.7081239535861017e-06   -1.279302736123956e-07
-1.0545001433282495e-05   3.8570153990952634e-07   -4.423034078366993e-06
-1.0545001433282495e-05   3.8570153990952634e-07   -4.423034078366993e-06
-1.0545001433282495e-05   3.8570153990952634e-07   -4.423034078366993e-06
-1.0545001433282495e-05   3.8570153990952634e-07   -4.423034078366993e-06
-1.3598135785058847e-05   0.0   -9.327433157303593e-06
-1.3598135785058847e-05   0.0   -9.327433157303593e-06
-1.3598135785058847e-05   0.0   -9.327433157303593e-06
-1.3598135785058847e-05   0.0   -9.327433157303593e-06
-8.078434054844128e-06   1.7081239535861067e-06   8.969440985392647e-07
-8.078434054844128e-06   1.7081239535861067e-06   8.969440985392647e-07
-8.078434054844128e-06   1.7081239535861067e-06   8.969440985392647e-07
-8.078434054844128e-06   1.7081239535861067e-06   8.969440985392647e-07
-8.084526561204728e-06   0.0   -8.501283916857906e-06
-8.084526561204728e-06   0.0   -8.501283916857906e-06
-8.084526561204728e-06   0.0   -8.501283916857906e-06
-8.084526561204728e-06   0.0   -8.501283916857906e-06
-1.4002413926501237e-05   1.8338924872244856e-06   2.6152619963495434e-07
-1.4002413926501237e-05   1.8338924872244856e-06   2.6152619963495434e-07
-1.4002413926501237e-05   1.8338924872244856e-06   2.6152619963495434e-07
-1.4002413926501237e-05   1.8338924872244856e-06   2.6152619963495434e-07
-1.0841331173131768e-05   6.884577003714033e-07   -4.319684183868973e-06
-1.0841331173131768e-05   6.884577003714033e-07   -4.319684183868973e-06
-1.0841331173131768e-05   6.884577003714033e-07   -4.319684183868973e-06
-1.0841331173131768e-05   6.884577003714033e-07   -4.319684183868973e-06
-1.4002413926501262e-05   0.0   -9.601619409192601e-06
-1.4002413926501262e-05   0.0   -9.601619409192601e-06
-1.4002413926501262e-05   0.0   -9.601619409192601e-06
-1.4002413926501262e-05   0.0   -9.601619409192601e-06
-8.084526561204728e-06   1.833892487224489e-06   1.361861691969649e-06
-8.084526561204728e-06   1.833892487224489e-06   1.361861691969649e-06
-8.084526561204728e-06   1.833892487224489e-06   1.361861691969649e-06
-8.084526561204728e-06   1.833892487224489e-06   1.361861691969649e-06
-8.061462743176284e-06   0.0   -8.55498020490485e-06
-8.061462743176284e-06   0.0   -8.55498020490485e-06
-8.061462743176284e-06   0.0   -8.55498020490485e-06
-8.061462743176284e-06   0.0   -8.55498020490485e-06
-1.4889903526822497e-05   2.101342691318633e-06   1.5649488197143598e-06
-1.4889903526822497e-05   2.101342691318633e-06   1.5649488197143598e-06
-1.4889903526822497e-05   2.101342691318633e-06   1.5649488197143598e-06
-1.4889903526822497e-05   2.101342691318633e-06   1.5649488197143598e-06
-1.1031938334838754e-05   8.721993369064583e-07   -4.127507154277901e-06
-1.1031938334838754e-05   8.721993369064583e-07   -4.127507154277901e-06
-1.1031938334838754e-05   8.721993369064583e-07   -4.127507154277901e-06
-1.1031938334838754e-05   8.721993369064583e-07   -4.127507154277901e-06
-8.257168956740162e-06   0.0   -7.918524814188523e-06
-8.257168956740162e-06   0.0   -7.918524814188523e-06
-8.257168956740162e-06   0.0   -7.918524814188523e-06
-8.257168956740162e-06   0.0   -7.918524814188523e-06
-3.7796602864663727e-06   5.118849063728048e-07   -1.488794199085296e-07
-3.7796602864663727e-06   5.118849063728048e-07   -1.488794199085296e-07
-3.7796602864663727e-06   5.118849063728048e-07   -1.488794199085296e-07
-3.7796602864663727e-06   5.118849063728048e-07   -1.488794199085296e-07
-3.618956973313655e-06   0.0   -7.859375196557898e-06
-3.618956973313655e-06   0.0   -7.859375196557898e-06
-3.618956973313655e-06   0.0   -7.859375196557898e-06
-3.618956973313655e-06   0.0   -7.859375196557898e-06
-8.078434054844128e-06   7.386393143233829e-07   -8.700969826011408e-07
-8.078434054844128e-06   7.386393143233829e-07   -8.700969826011408e-07
-8.078434054844128e-06   7.386393143233829e-07   -8.700969826011408e-07
-8.078434054844128e-06   7.386393143233829e-07   -8.700969826011408e-07
-5.938062965026898e-06   4.929134802551947e-08   -4.023773352517779e-06
-5.938062965026898e-06   4.929134802551947e-08   -4.023773352517779e-06
-5.938062965026898e-06   4.929134802551947e-08   -4.023773352517779e-06
-5.938062965026898e-06   4.929134802551947e-08   -4.023773352517779e-06
-8.078434054844121e-06   0.0   -8.302558785151921e-06
-8.078434054844121e-06   0.0   -8.302558785151921e-06
-8.078434054844121e-06   0.0   -8.302558785151921e-06
-8.078434054844121e-06   0.0   -8.302558785151921e-06
-3.618956973313655e-06   7.386393143233829e-07   -4.2691339400711103e-07
-3.618956973313655e-06   7.386393143233829e-07   -4.2691339400711103e-07
-3.618956973313655e-06   7.386393143233829e-07   -4.2691339400711103e-07
-3.618956973313655e-06   7.386393143233829e-07   -4.2691339400711103e-07
-3.521878548586457e-06   0.0   -7.954580018646794e-06
-3.521878548586457e-06   0.0   -7.954580018646794e-06
-3.521878548586457e-06   0.0   -7.954580018646794e-06
-3.521878548586457e-06   0.0   -7.954580018646794e-06
-8.084526561204728e-06   9.111731636851904e-07   -8.968705624941239e-07
-8.084526561204728e-06   9.111731636851904e-07   -8.968705624941239e-07
-8.084526561204728e-06   9.111731636851904e-07   -8.968705624941239e-07
-8.084526561204728e-06   9.111731636851904e-07   -8.968705624941239e-07
-5.800156301715281e-06   2.89982305420946e-07   -4.3314398133512875e-06
-5.800156301715281e-06   2.89982305420946e-07   -4.3314398133512875e-06
-5.800156301715281e-06   2.89982305420946e-07   -4.3314398133512875e-06
-5.800156301715281e-06   2.89982305420946e-07   -4.3314398133512875e-06
-8.084526561204728e-06   0.0   -8.501283916857906e-06
-8.084526561204728e-06   0.0   -8.501283916857906e-06
-8.084526561204728e-06   0.0   -8.501283916857906e-06
-8.084526561204728e-06   0.0   -8.501283916857906e-06
-3.521878548586457e-06   9.111731636851904e-07   -3.5016666428300963e-07
-3.521878548586457e-06   9.111731636851904e-07   -3.5016666428300963e-07
-3.521878548586457e-06   9.111731636851904e-07   -3.5016666428300963e-07
-3.521878548586457e-06   9.111731636851904e-07   -3.5016666428300963e-07
-3.4307239270428295e-06   0.0   -7.91645108939656e-06
-3.4307239270428295e-06   0.0   -7.91645108939656e-06
-3.4307239270428295e-06   0.0   -7.91645108939656e-06
-3.4307239270428295e-06   0.0   -7.91645108939656e-06
-8.061462743176264e-06   1.0642151925138025e-06   -8.370821780157543e-07
-8.061462743176264e-06   1.0642151925138025e-06   -8.370821780157543e-07
-8.061462743176264e-06   1.0642151925138025e-06   -8.370821780157543e-07
-8.061462743176264e-06   1.0642151925138025e-06   -8.370821780157543e-07
-5.757625244123777e-06   4.873606895511175e-07   -4.3306986413256515e-06
-5.757625244123777e-06   4.873606895511175e-07   -4.3306986413256515e-06
-5.757625244123777e-06   4.873606895511175e-07   -4.3306986413256515e-06
-5.757625244123777e-06   4.873606895511175e-07   -4.3306986413256515e-06
-3.7796602864663794e-06   0.0   -7.611393870364839e-06
-3.7796602864663794e-06   0.0   -7.611393870364839e-06
-3.7796602864663794e-06   0.0   -7.611393870364839e-06
-3.7796602864663794e-06   0.0   -7.611393870364839e-06
4.364803614626924e-07   -6.993256020089791e-08   -6.264523266035847e-07
4.364803614626924e-07   -6.993256020089791e-08   -6.264523266035847e-07
4.364803614626924e-07   -6.993256020089791e-08   -6.264523266035847e-07
4.364803614626924e-07   -6.993256020089791e-08   -6.264523266035847e-07
5.467938193259347e-07   0.0   -7.77965874256063e-06
5.467938193259347e-07   0.0   -7.77965874256063e-06
5.467938193259347e-07   0.0   -7.77965874256063e-06
5.467938193259347e-07   0.0   -7.77965874256063e-06
-3.618956973313655e-06   1.328607566620693e-07   -9.164572088252466e-07
-3.618956973313655e-06   1.328607566620693e-07   -9.164572088252466e-07
-3.618956973313655e-06   1.328607566620693e-07   -9.164572088252466e-07
-3.618956973313655e-06   1.328607566620693e-07   -9.164572088252466e-07
-1.6164332335702184e-06   -1.402207268298483e-07   -4.090147884969142e-06
-1.6164332335702184e-06   -1.402207268298483e-07   -4.090147884969142e-06
-1.6164332335702184e-06   -1.402207268298483e-07   -4.090147884969142e-06
-1.6164332335702184e-06   -1.402207268298483e-07   -4.090147884969142e-06
-3.618956973313655e-06   0.0   -7.859375196557898e-06
-3.618956973313655e-06   0.0   -7.859375196557898e-06
-3.618956973313655e-06   0.0   -7.859375196557898e-06
-3.618956973313655e-06   0.0   -7.859375196557898e-06
5.467938193259357e-07   1.32860756662071e-07   -8.367407548280033e-07
5.467938193259357e-07   1.32860756662071e-07   -8.367407548280033e-07
5.467938193259357e-07   1.32860756662071e-07   -8.367407548280033e-07
5.467938193259357e-07   1.32860756662071e-07   -8.367407548280033e-07
6.360661970020839e-07   0.0   -7.767247078738219e-06
6.360661970020839e-07   0.0   -7.767247078738219e-06
6.360661970020839e-07   0.0   -7.767247078738219e-06
6.360661970020839e-07   0.0   -7.767247078738219e-06
-3.5218785485864507e-06   3.122215665142691e-07   -1.0246721093325554e-06
-3.5218785485864507e-06   3.122215665142691e-07   -1.0246721093325554e-06
-3.5218785485864507e-06   3.122215665142691e-07   -1.0246721093325554e-06
-3.5218785485864507e-06   3.122215665142691e-07   -1.0246721093325554e-06
-1.4914453881557852e-06   7.677343151638995e-08   -4.26745849571828e-06
-1.4914453881557852e-06   7.677343151638995e-08   -4.26745849571828e-06
-1.4914453881557852e-06   7.677343151638995e-08   -4.26745849571828e-06
-1.4914453881557852e-06   7.677343151638995e-08   -4.26745849571828e-06
-3.521878548586457e-06   0.0   -7.954580018646794e-06
-3.521878548586457e-06   0.0   -7.954580018646794e-06
-3.521878548586457e-06   0.0   -7.954580018646794e-06
-3.521878548586457e-06   0.0   -7.954580018646794e-06
6.36066197002085e-07   3.122215665142691e-07   -8.373391694239962e-07
6.36066197002085e-07   3.122215665142691e-07   -8.373391694239962e-07
6.36066197002085e-07   3.122215665142691e-07   -8.373391694239962e-07
6.36066197002085e-07   3.122215665142691e-07   -8.373391694239962e-07
7.506422246993248e-07   0.0   -7.605066232057251e-06
7.506422246993248e-07   0.0   -7.605066232057251e-06
7.506422246993248e-07   0.0   -7.605066232057251e-06
7.506422246993248e-07   0.0   -7.605066232057251e-06
-3.4307239270428265e-06   5.18974762232171e-07   -9.475075031596348e-07
-3.4307239270428265e-06   5.18974762232171e-07   -9.475075031596348e-07
-3.4307239270428265e-06   5.18974762232171e-07   -9.475075031596348e-07
-3.4307239270428265e-06   5.18974762232171e-07   -9.475075031596348e-07
-1.385618161943563e-06   2.912614888246079e-07   -4.219389147613866e-06
-1.385618161943563e-06   2.912614888246079e-07   -4.219389147613866e-06
-1.385618161943563e-06   2.912614888246079e-07   -4.219389147613866e-06
-1.385618161943563e-06   2.912614888246079e-07   -4.219389147613866e-06
4.364803614626932e-07   0.0   -7.653353406485379e-06
4.364803614626932e-07   0.0   -7.653353406485379e-06
4.364803614626932e-07   0.0   -7.653353406485379e-06
4.364803614626932e-07   0.0   -7.653353406485379e-06
5.0272367711083054e-06   -5.897314647185315e-07   -3.55931602573805e-07
5.0272367711083054e-06   -5.897314647185315e-07   -3.55931602573805e-07
5.0272367711083054e-06   -5.897314647185315e-07   -3.55931602573805e-07
5.0272367711083054e-06   -5.897314647185315e-07   -3.55931602573805e-07
5.057065175192153e-06   0.0   -8.043583758752579e-06
5.057065175192153e-06   0.0   -8.043583758752579e-06
5.057065175192153e-06   0.0   -8.043583758752579e-06
5.057065175192153e-06   0.0   -8.043583758752579e-06
5.467938193259366e-07   -4.3987502698653636e-07   -2.625398161169648e-07
5.467938193259366e-07   -4.3987502698653636e-07   -2.625398161169648e-07
5.467938193259366e-07   -4.3987502698653636e-07   -2.625398161169648e-07
5.467938193259366e-07   -4.3987502698653636e-07   -2.625398161169648e-07
2.746772768327423e-06   -3.251919602226667e-07   -3.997981237844427e-06
2.746772768327423e-06   -3.251919602226667e-07   -3.997981237844427e-06
2.746772768327423e-06   -3.251919602226667e-07   -3.997981237844427e-06
2.746772768327423e-06   -3.251919602226667e-07   -3.997981237844427e-06
5.467938193259366e-07   0.0   -7.779658742560657e-06
5.467938193259366e-07   0.0   -7.779658742560657e-06
5.467938193259366e-07   0.0   -7.779658742560657e-06
5.467938193259366e-07   0.0   -7.779658742560657e-06
5.057065175192153e-06   -4.3987502698653636e-07   -5.264648323088861e-07
5.057065175192153e-06   -4.3987502698653636e-07   -5.264648323088861e-07
5.057065175192153e-06   -4.3987502698653636e-07   -5.264648323088861e-07
5.057065175192153e-06   -4.3987502698653636e-07   -5.264648323088861e-07
5.053408354963956e-06   0.0   -7.928874072279573e-06
5.053408354963956e-06   0.0   -7.928874072279573e-06
5.053408354963956e-06   0.0   -7.928874072279573e-06
5.053408354963956e-06   0.0   -7.928874072279573e-06
6.36066197002085e-07   -2.693783225689023e-07   -4.050101488017813e-07
6.36066197002085e-07   -2.693783225689023e-07   -4.050101488017813e-07
6.36066197002085e-07   -2.693783225689023e-07   -4.050101488017813e-07
6.36066197002085e-07   -2.693783225689023e-07   -4.050101488017813e-07
2.8001010871449463e-06   -1.243461080990967e-07   -4.09875429438843e-06
2.8001010871449463e-06   -1.243461080990967e-07   -4.09875429438843e-06
2.8001010871449463e-06   -1.243461080990967e-07   -4.09875429438843e-06
2.8001010871449463e-06   -1.243461080990967e-07   -4.09875429438843e-06
6.360661970020845e-07   0.0   -7.767247078738225e-06
6.360661970020845e-07   0.0   -7.767247078738225e-06
6.360661970020845e-07   0.0   -7.767247078738225e-06
6.360661970020845e-07   0.0   -7.767247078738225e-06
5.053408354963956e-06   -2.693783225689023e-07   -5.666371423431229e-07
5.053408354963956e-06   -2.693783225689023e-07   -5.666371423431229e-07
5.053408354963956e-06   -2.693783225689023e-07   -5.666371423431229e-07
5.053408354963956e-06   -2.693783225689023e-07   -5.666371423431229e-07
5.168575062588744e-06   0.0   -7.629885727194104e-06
5.168575062588744e-06   0.0   -7.629885727194104e-06
5.168575062588744e-06   0.0   -7.629885727194104e-06
5.168575062588744e-06   0.0   -7.629885727194104e-06
7.506422246993261e-07   -4.136582522806802e-08   -2.4184483557490145e-07
7.506422246993261e-07   -4.136582522806802e-08   -2.4184483557490145e-07
7.506422246993261e-07   -4.136582522806802e-08   -2.4184483557490145e-07
7.506422246993261e-07   -4.136582522806802e-08   -2.4184483557490145e-07
2.9023206297954126e-06   1.1446779295343932e-07   -3.9214756816439465e-06
2.9023206297954126e-06   1.1446779295343932e-07   -3.9214756816439465e-06
2.9023206297954126e-06   1.1446779295343932e-07   -3.9214756816439465e-06
2.9023206297954126e-06   1.1446779295343932e-07   -3.9214756816439465e-06
5.0272367711083054e-06   0.0   -8.007192285316497e-06
5.0272367711083054e-06   0.0   -8.007192285316497e-06
5.0272367711083054e-06   0.0   -8.007192285316497e-06
5.0272367711083054e-06   0.0   -8.007192285316497e-06
1.1460153835278655e-05   -1.5090194608070421e-06   1.8089244784832584e-06
1.1460153835278655e-05   -1.5090194608070421e-06   1.8089244784832584e-06
1.1460153835278655e-05   -1.5090194608070421e-06   1.8089244784832584e-06
1.1460153835278655e-05   -1.5090194608070421e-06   1.8089244784832584e-06
1.0790067338670876e-05   0.0   -8.807325162907995e-06
1.0790067338670876e-05   0.0   -8.807325162907995e-06
1.0790067338670876e-05   0.0   -8.807325162907995e-06
1.0790067338670876e-05   0.0   -8.807325162907995e-06
5.057065175192153e-06   -1.2729023402590266e-06   1.5114198470452893e-06
5.057065175192153e-06   -1.2729023402590266e-06   1.5114198470452893e-06
5.057065175192153e-06   -1.2729023402590266e-06   1.5114198470452893e-06
5.057065175192153e-06   -1.2729023402590266e-06   1.5114198470452893e-06
7.908652054889591e-06   -6.667773979929151e-07   -3.604899917810101e-06
7.908652054889591e-06   -6.667773979929151e-07   -3.604899917810101e-06
7.908652054889591e-06   -6.667773979929151e-07   -3.604899917810101e-06
7.908652054889591e-06   -6.667773979929151e-07   -3.604899917810101e-06
5.0570651751921475e-06   0.0   -8.043583758752572e-06
5.0570651751921475e-06   0.0   -8.043583758752572e-06
5.0570651751921475e-06   0.0   -8.043583758752572e-06
5.0570651751921475e-06   0.0   -8.043583758752572e-06
1.0790067338670838e-05   -1.2729023402590232e-06   7.476784428898716e-07
1.0790067338670838e-05   -1.2729023402590232e-06   7.476784428898716e-07
1.0790067338670838e-05   -1.2729023402590232e-06   7.476784428898716e-07
1.0790067338670838e-05   -1.2729023402590232e-06   7.476784428898716e-07
1.0489194918621024e-05   0.0   -8.624413389308927e-06
1.0489194918621024e-05   0.0   -8.624413389308927e-06
1.0489194918621024e-05   0.0   -8.624413389308927e-06
1.0489194918621024e-05   0.0   -8.624413389308927e-06
5.053408354963956e-06   -1.1592321950489228e-06   1.1307702004822046e-06
5.053408354963956e-06   -1.1592321950489228e-06   1.1307702004822046e-06
5.053408354963956e-06   -1.1592321950489228e-06   1.1307702004822046e-06
5.053408354963956e-06   -1.1592321950489228e-06   1.1307702004822046e-06
7.773130046906583e-06   -4.840246921302908e-07   -3.80722378784002e-06
7.773130046906583e-06   -4.840246921302908e-07   -3.80722378784002e-06
7.773130046906583e-06   -4.840246921302908e-07   -3.80722378784002e-06
7.773130046906583e-06   -4.840246921302908e-07   -3.80722378784002e-06
5.053408354963956e-06   0.0   -7.928874072279573e-06
5.053408354963956e-06   0.0   -7.928874072279573e-06
5.053408354963956e-06   0.0   -7.928874072279573e-06
5.053408354963956e-06   0.0   -7.928874072279573e-06
1.0489194918620987e-05   -1.1592321950489194e-06   4.352308834528509e-07
1.0489194918620987e-05   -1.1592321950489194e-06   4.352308834528509e-07
1.0489194918620987e-05   -1.1592321950489194e-06   4.352308834528509e-07
1.0489194918620987e-05   -1.1592321950489194e-06   4.352308834528509e-07
1.002869823351681e-05   0.0   -8.16269467100094e-06
1.002869823351681e-05   0.0   -8.16269467100094e-06
1.002869823351681e-05   0.0   -8.16269467100094e-06
1.002869823351681e-05   0.0   -8.16269467100094e-06
5.168575062588744e-06   -8.880149063447495e-07   4.7031955768603155e-07
5.168575062588744e-06   -8.880149063447495e-07   4.7031955768603155e-07
5.168575062588744e-06   -8.880149063447495e-07   4.7031955768603155e-07
5.168575062588744e-06   -8.880149063447495e-07   4.7031955768603155e-07
7.541053294240391e-06   -1.948504989344851e-07   -3.899709472846202e-06
7.541053294240391e-06   -1.948504989344851e-07   -3.899709472846202e-06
7.541053294240391e-06   -1.948504989344851e-07   -3.899709472846202e-06
7.541053294240391e-06   -1.948504989344851e-07   -3.899709472846202e-06
-1.112216124684941e-05   1.4114596980913932e-06   -7.447797858020427e-06
-1.112216124684941e-05   1.4114596980913932e-06   -7.447797858020427e-06
-1.112216124684941e-05   1.4114596980913932e-06   -7.447797858020427e-06
-1.112216124684941e-05   1.4114596980913932e-06   -7.447797858020427e-06
-7.138690086179921e-06   1.259177011173293e-06   -9.000488690554646e-07