<?xml version="1.0"?> 
<VTKFile type="UnstructuredGrid"> 
   <UnstructuredGrid> 
      <Piece NumberOfPoints="6000"  NumberOfCells="1500">  
          <Points>  
             <DataArray type="Float64" NumberOfComponents="3" format="ascii">   
-500.0   0.0   0.0
-450.0   0.0   0.0
-500.0   30.0   0.0
-500.0   0.0   16.666666666666668
-450.0   0.0   0.0
-450.0   30.0   0.0
-500.0   30.0   0.0
-450.0   30.0   16.666666666666668
-500.0   0.0   16.666666666666668
-500.0   30.0   16.666666666666668
-450.0   30.0   16.666666666666668
-500.0   30.0   0.0
-500.0   0.0   16.666666666666668
-450.0   30.0   16.666666666666668
-450.0   0.0   16.666666666666668
-450.0   0.0   0.0
-500.0   0.0   16.666666666666668
-450.0   30.0   16.666666666666668
-450.0   0.0   0.0
-500.0   30.0   0.0
-500.0   0.0   16.666666666666668
-450.0   0.0   16.666666666666668
-500.0   30.0   16.666666666666668
-500.0   0.0   33.333333333333336
-450.0   0.0   16.666666666666668
-450.0   30.0   16.666666666666668
-500.0   30.0   16.666666666666668
-450.0   30.0   33.333333333333336
-500.0   0.0   33.333333333333336
-500.0   30.0   33.333333333333336
-450.0   30.0   33.333333333333336
-500.0   30.0   16.666666666666668
-500.0   0.0   33.333333333333336
-450.0   30.0   33.333333333333336
-450.0   0.0   33.333333333333336
-450.0   0.0   16.666666666666668
-500.0   0.0   33.333333333333336
-450.0   30.0   33.333333333333336
-450.0   0.0   16.666666666666668
-500.0   30.0   16.666666666666668
-500.0   0.0   33.333333333333336
-450.0   0.0   33.333333333333336
-500.0   30.0   33.333333333333336
-500.0   0.0   50.0
-450.0   0.0   33.333333333333336
-450.0   30.0   33.333333333333336
-500.0   30.0   33.333333333333336
-450.0   30.0   50.0
-500.0   0.0   50.0
-500.0   30.0   50.0
-450.0   30.0   50.0
-500.0   30.0   33.333333333333336
-500.0   0.0   50.0
-450.0   30.0   50.0
-450.0   0.0   50.0
-450.0   0.0   33.333333333333336
-500.0   0.0   50.0
-450.0   30.0   50.0
-450.0   0.0   33.333333333333336
-500.0   30.0   33.333333333333336
-500.0   30.0   0.0
-450.0   30.0   0.0
-500.0   60.0   0.0
-500.0   30.0   16.666666666666668
-450.0   30.0   0.0
-450.0   60.0   0.0
-500.0   60.0   0.0
-450.0   60.0   16.666666666666668
-500.0   30.0   16.666666666666668
-500.0   60.0   16.666666666666668
-450.0   60.0   16.666666666666668
-500.0   60.0   0.0
-500.0   30.0   16.666666666666668
-450.0   60.0   16.666666666666668
-450.0   30.0   16.666666666666668
-450.0   30.0   0.0
-500.0   30.0   16.666666666666668
-450.0   60.0   16.666666666666668
-450.0   30.0   0.0
-500.0   60.0   0.0
-500.0   30.0   16.666666666666668
-450.0   30.0   16.666666666666668
-500.0   60.0   16.666666666666668
-500.0   30.0   33.333333333333336
-450.0   30.0   16.666666666666668
-450.0   60.0   16.666666666666668
-500.0   60.0   16.666666666666668
-450.0   60.0   33.333333333333336
-500.0   30.0   33.333333333333336
-500.0   60.0   33.333333333333336
-450.0   60.0   33.333333333333336
-500.0   60.0   16.666666666666668
-500.0   30.0   33.333333333333336
-450.0   60.0   33.333333333333336
-450.0   30.0   33.333333333333336
-450.0   30.0   16.666666666666668
-500.0   30.0   33.333333333333336
-450.0   60.0   33.333333333333336
-450.0   30.0   16.666666666666668
-500.0   60.0   16.666666666666668
-500.0   30.0   33.333333333333336
-450.0   30.0   33.333333333333336
-500.0   60.0   33.333333333333336
-500.0   30.0   50.0
-450.0   30.0   33.333333333333336
-450.0   60.0   33.333333333333336
-500.0   60.0   33.333333333333336
-450.0   60.0   50.0
-500.0   30.0   50.0
-500.0   60.0   50.0
-450.0   60.0   50.0
-500.0   60.0   33.333333333333336
-500.0   30.0   50.0
-450.0   60.0   50.0
-450.0   30.0   50.0
-450.0   30.0   33.333333333333336
-500.0   30.0   50.0
-450.0   60.0   50.0
-450.0   30.0   33.333333333333336
-500.0   60.0   33.333333333333336
-500.0   60.0   0.0
-450.0   60.0   0.0
-500.0   90.0   0.0
-500.0   60.0   16.666666666666668
-450.0   60.0   0.0
-450.0   90.0   0.0
-500.0   90.0   0.0
-450.0   90.0   16.666666666666668
-500.0   60.0   16.666666666666668
-500.0   90.0   16.666666666666668
-450.0   90.0   16.666666666666668
-500.0   90.0   0.0
-500.0   60.0   16.666666666666668
-450.0   90.0   16.666666666666668
-450.0   60.0   16.666666666666668
-450.0   60.0   0.0
-500.0   60.0   16.666666666666668
-450.0   90.0   16.666666666666668
-450.0   60.0   0.0
-500.0   90.0   0.0
-500.0   60.0   16.666666666666668
-450.0   60.0   16.666666666666668
-500.0   90.0   16.666666666666668
-500.0   60.0   33.333333333333336
-450.0   60.0   16.666666666666668
-450.0   90.0   16.666666666666668
-500.0   90.0   16.666666666666668
-450.0   90.0   33.333333333333336
-500.0   60.0   33.333333333333336
-500.0   90.0   33.333333333333336
-450.0   90.0   33.333333333333336
-500.0   90.0   16.666666666666668
-500.0   60.0   33.333333333333336
-450.0   90.0   33.333333333333336
-450.0   60.0   33.333333333333336
-450.0   60.0   16.666666666666668
-500.0   60.0   33.333333333333336
-450.0   90.0   33.333333333333336
-450.0   60.0   16.666666666666668
-500.0   90.0   16.666666666666668
-500.0   60.0   33.333333333333336
-450.0   60.0   33.333333333333336
-500.0   90.0   33.333333333333336
-500.0   60.0   50.0
-450.0   60.0   33.333333333333336
-450.0   90.0   33.333333333333336
-500.0   90.0   33.333333333333336
-450.0   90.0   50.0
-500.0   60.0   50.0
-500.0   90.0   50.0
-450.0   90.0   50.0
-500.0   90.0   33.333333333333336
-500.0   60.0   50.0
-450.0   90.0   50.0
-450.0   60.0   50.0
-450.0   60.0   33.333333333333336
-500.0   60.0   50.0
-450.0   90.0   50.0
-450.0   60.0   33.333333333333336
-500.0   90.0   33.333333333333336
-500.0   90.0   0.0
-450.0   90.0   0.0
-500.0   120.0   0.0
-500.0   90.0   16.666666666666668
-450.0   90.0   0.0
-450.0   120.0   0.0
-500.0   120.0   0.0
-450.0   120.0   16.666666666666668
-500.0   90.0   16.666666666666668
-500.0   120.0   16.666666666666668
-450.0   120.0   16.666666666666668
-500.0   120.0   0.0
-500.0   90.0   16.666666666666668
-450.0   120.0   16.666666666666668
-450.0   90.0   16.666666666666668
-450.0   90.0   0.0
-500.0   90.0   16.666666666666668
-450.0   120.0   16.666666666666668
-450.0   90.0   0.0
-500.0   120.0   0.0
-500.0   90.0   16.666666666666668
-450.0   90.0   16.666666666666668
-500.0   120.0   16.666666666666668
-500.0   90.0   33.333333333333336
-450.0   90.0   16.666666666666668
-450.0   120.0   16.666666666666668
-500.0   120.0   16.666666666666668
-450.0   120.0   33.333333333333336
-500.0   90.0   33.333333333333336
-500.0   120.0   33.333333333333336
-450.0   120.0   33.333333333333336
-500.0   120.0   16.666666666666668
-500.0   90.0   33.333333333333336
-450.0   120.0   33.333333333333336
-450.0   90.0   33.333333333333336
-450.0   90.0   16.666666666666668
-500.0   90.0   33.333333333333336
-450.0   120.0   33.333333333333336
-450.0   90.0   16.666666666666668
-500.0   120.0   16.666666666666668
-500.0   90.0   33.333333333333336
-450.0   90.0   33.333333333333336
-500.0   120.0   33.333333333333336
-500.0   90.0   50.0
-450.0   90.0   33.333333333333336
-450.0   120.0   33.333333333333336
-500.0   120.0   33.333333333333336
-450.0   120.0   50.0
-500.0   90.0   50.0
-500.0   120.0   50.0
-450.0   120.0   50.0
-500.0   120.0   33.333333333333336
-500.0   90.0   50.0
-450.0   120.0   50.0
-450.0   90.0   50.0
-450.0   90.0   33.333333333333336
-500.0   90.0   50.0
-450.0   120.0   50.0
-450.0   90.0   33.333333333333336
-500.0   120.0   33.333333333333336
-500.0   120.0   0.0
-450.0   120.0   0.0
-500.0   150.0   0.0
-500.0   120.0   16.666666666666668
-450.0   120.0   0.0
-450.0   150.0   0.0
-500.0   150.0   0.0
-450.0   150.0   16.666666666666668
-500.0   120.0   16.666666666666668
-500.0   150.0   16.666666666666668
-450.0   150.0   16.666666666666668
-500.0   150.0   0.0
-500.0   120.0   16.666666666666668
-450.0   150.0   16.666666666666668
-450.0   120.0   16.666666666666668
-450.0   120.0   0.0
-500.0   120.0   16.666666666666668
-450.0   150.0   16.666666666666668
-450.0   120.0   0.0
-500.0   150.0   0.0
-500.0   120.0   16.666666666666668
-450.0   120.0   16.666666666666668
-500.0   150.0   16.666666666666668
-500.0   120.0   33.333333333333336
-450.0   120.0   16.666666666666668
-450.0   150.0   16.666666666666668
-500.0   150.0   16.666666666666668
-450.0   150.0   33.333333333333336
-500.0   120.0   33.333333333333336
-500.0   150.0   33.333333333333336
-450.0   150.0   33.333333333333336
-500.0   150.0   16.666666666666668
-500.0   120.0   33.333333333333336
-450.0   150.0   33.333333333333336
-450.0   120.0   33.333333333333336
-450.0   120.0   16.666666666666668
-500.0   120.0   33.333333333333336
-450.0   150.0   33.333333333333336
-450.0   120.0   16.666666666666668
-500.0   150.0   16.666666666666668
-500.0   120.0   33.333333333333336
-450.0   120.0   33.333333333333336
-500.0   150.0   33.333333333333336
-500.0   120.0   50.0
-450.0   120.0   33.333333333333336
-450.0   150.0   33.333333333333336
-500.0   150.0   33.333333333333336
-450.0   150.0   50.0
-500.0   120.0   50.0
-500.0   150.0   50.0
-450.0   150.0   50.0
-500.0   150.0   33.333333333333336
-500.0   120.0   50.0
-450.0   150.0   50.0
-450.0   120.0   50.0
-450.0   120.0   33.333333333333336
-500.0   120.0   50.0
-450.0   150.0   50.0
-450.0   120.0   33.333333333333336
-500.0   150.0   33.333333333333336
-450.0   0.0   0.0
-400.0   0.0   0.0
-450.0   30.0   0.0
-450.0   0.0   16.666666666666668
-400.0   0.0   0.0
-400.0   30.0   0.0
-450.0   30.0   0.0
-400.0   30.0   16.666666666666668
-450.0   0.0   16.666666666666668
-450.0   30.0   16.666666666666668
-400.0   30.0   16.666666666666668
-450.0   30.0   0.0
-450.0   0.0   16.666666666666668
-400.0   30.0   16.666666666666668
-400.0   0.0   16.666666666666668
-400.0   0.0   0.0
-450.0   0.0   16.666666666666668
-400.0   30.0   16.666666666666668
-400.0   0.0   0.0
-450.0   30.0   0.0
-450.0   0.0   16.666666666666668
-400.0   0.0   16.666666666666668
-450.0   30.0   16.666666666666668
[...]
          <PointData>  
             <DataArray type="Float64" NumberOfComponents="3" Name="Strains" format="ascii">   
-6.308032811912453e-05   0.0   -4.1486880286650155e-05
-6.308032811912453e-05   0.0   -4.1486880286650155e-05
-6.308032811912453e-05   0.0   -4.1486880286650155e-05
-6.308032811912453e-05   0.0   -4.1486880286650155e-05
-4.013061422964696e-05   6.976526895806332e-06   9.485589999628602e-07
-4.013061422964696e-05   6.976526895806332e-06   9.485589999628602e-07
-4.013061422964696e-05   6.976526895806332e-06   9.485589999628602e-07
-4.013061422964696e-05   6.976526895806332e-06   9.485589999628602e-07
-3.9331111552355474e-05   0.0   -3.916690832647881e-05
-3.9331111552355474e-05   0.0   -3.916690832647881e-05
-3.9331111552355474e-05   0.0   -3.916690832647881e-05
-3.9331111552355474e-05   0.0   -3.916690832647881e-05
-6.600931584814748e-05   8.377704899691614e-06   2.701425600264151e-07
-6.600931584814748e-05   8.377704899691614e-06   2.701425600264151e-07
-6.600931584814748e-05   8.377704899691614e-06   2.701425600264151e-07
-6.600931584814748e-05   8.377704899691614e-06   2.701425600264151e-07
-5.120571983573992e-05   1.9333099668094523e-06   -2.053588050092354e-05
-5.120571983573992e-05   1.9333099668094523e-06   -2.053588050092354e-05
-5.120571983573992e-05   1.9333099668094523e-06   -2.053588050092354e-05
-5.120571983573992e-05   1.9333099668094523e-06   -2.053588050092354e-05
-6.60093158481476e-05   0.0   -4.419353126629379e-05
-6.60093158481476e-05   0.0   -4.419353126629379e-05
-6.60093158481476e-05   0.0   -4.419353126629379e-05
-6.60093158481476e-05   0.0   -4.419353126629379e-05
-3.9331111552355474e-05   8.377704899691627e-06   5.296765499841383e-06
-3.9331111552355474e-05   8.377704899691627e-06   5.296765499841383e-06
-3.9331111552355474e-05   8.377704899691627e-06   5.296765499841383e-06
-3.9331111552355474e-05   8.377704899691627e-06   5.296765499841383e-06
-3.9435707561971515e-05   0.0   -4.012387426149934e-05
-3.9435707561971515e-05   0.0   -4.012387426149934e-05
-3.9435707561971515e-05   0.0   -4.012387426149934e-05
-3.9435707561971515e-05   0.0   -4.012387426149934e-05
-6.806341169408681e-05   8.97695060833283e-06   2.2027955936933057e-06
-6.806341169408681e-05   8.97695060833283e-06   2.2027955936933057e-06
-6.806341169408681e-05   8.97695060833283e-06   2.2027955936933057e-06
-6.806341169408681e-05   8.97695060833283e-06   2.2027955936933057e-06
-5.2722511705059463e-05   3.391380837328709e-06   -2.0014029192083113e-05
-5.2722511705059463e-05   3.391380837328709e-06   -2.0014029192083113e-05
-5.2722511705059463e-05   3.391380837328709e-06   -2.0014029192083113e-05
-5.2722511705059463e-05   3.391380837328709e-06   -2.0014029192083113e-05
-6.806341169408693e-05   0.0   -4.551004462649904e-05
-6.806341169408693e-05   0.0   -4.551004462649904e-05
-6.806341169408693e-05   0.0   -4.551004462649904e-05
-6.806341169408693e-05   0.0   -4.551004462649904e-05
-3.9435707561971515e-05   8.97695060833283e-06   7.58896595869302e-06
-3.9435707561971515e-05   8.97695060833283e-06   7.58896595869302e-06
-3.9435707561971515e-05   8.97695060833283e-06   7.58896595869302e-06
-3.9435707561971515e-05   8.97695060833283e-06   7.58896595869302e-06
-3.940784959683346e-05   0.0   -4.037077367689478e-05
-3.940784959683346e-05   0.0   -4.037077367689478e-05
-3.940784959683346e-05   0.0   -4.037077367689478e-05
-3.940784959683346e-05   0.0   -4.037077367689478e-05
-7.249477659330354e-05   1.0231278383703612e-05   8.635337620333357e-06
-7.249477659330354e-05   1.0231278383703612e-05   8.635337620333357e-06
-7.249477659330354e-05   1.0231278383703612e-05   8.635337620333357e-06
-7.249477659330354e-05   1.0231278383703612e-05   8.635337620333357e-06
-5.37356306454601e-05   4.282725791336879e-06   -1.90607740706523e-05
-5.37356306454601e-05   4.282725791336879e-06   -1.90607740706523e-05
-5.37356306454601e-05   4.282725791336879e-06   -1.90607740706523e-05
-5.37356306454601e-05   4.282725791336879e-06   -1.90607740706523e-05
-4.013061422964703e-05   0.0   -3.730096414916635e-05
-4.013061422964703e-05   0.0   -3.730096414916635e-05
-4.013061422964703e-05   0.0   -3.730096414916635e-05
-4.013061422964703e-05   0.0   -3.730096414916635e-05
-1.8283012766767384e-05   2.556484581316033e-06   6.455957044226473e-07
-1.8283012766767384e-05   2.556484581316033e-06   6.455957044226473e-07
-1.8283012766767384e-05   2.556484581316033e-06   6.455957044226473e-07
-1.8283012766767384e-05   2.556484581316033e-06   6.455957044226473e-07
-1.7578178744414998e-05   0.0   -3.698083739319443e-05
-1.7578178744414998e-05   0.0   -3.698083739319443e-05
-1.7578178744414998e-05   0.0   -3.698083739319443e-05
-1.7578178744414998e-05   0.0   -3.698083739319443e-05
-3.9331111552355474e-05   3.643451555473967e-06   -2.9120203132446863e-06
-3.9331111552355474e-05   3.643451555473967e-06   -2.9120203132446863e-06
-3.9331111552355474e-05   3.643451555473967e-06   -2.9120203132446863e-06
-3.9331111552355474e-05   3.643451555473967e-06   -2.9120203132446863e-06
-2.8854396487030963e-05   2.6677229664326987e-07   -1.834720453348699e-05
-2.8854396487030963e-05   2.6677229664326987e-07   -1.834720453348699e-05
-2.8854396487030963e-05   2.6677229664326987e-07   -1.834720453348699e-05
-2.8854396487030963e-05   2.6677229664326987e-07   -1.834720453348699e-05
-3.933111155235544e-05   0.0   -3.9166908326478774e-05
-3.933111155235544e-05   0.0   -3.9166908326478774e-05
-3.933111155235544e-05   0.0   -3.9166908326478774e-05
-3.933111155235544e-05   0.0   -3.9166908326478774e-05
-1.7578178744414998e-05   3.643451555473967e-06   -7.259493799603014e-07
-1.7578178744414998e-05   3.643451555473967e-06   -7.259493799603014e-07
-1.7578178744414998e-05   3.643451555473967e-06   -7.259493799603014e-07
-1.7578178744414998e-05   3.643451555473967e-06   -7.259493799603014e-07
-1.7179736883791544e-05   0.0   -3.7443738716743965e-05
-1.7179736883791544e-05   0.0   -3.7443738716743965e-05
-1.7179736883791544e-05   0.0   -3.7443738716743965e-05
-1.7179736883791544e-05   0.0   -3.7443738716743965e-05
-3.9435707561971515e-05   4.4668925745922885e-06   -3.0305897978660535e-06
-3.9435707561971515e-05   4.4668925745922885e-06   -3.0305897978660535e-06
-3.9435707561971515e-05   4.4668925745922885e-06   -3.0305897978660535e-06
-3.9435707561971515e-05   4.4668925745922885e-06   -3.0305897978660535e-06
-2.8255424218073453e-05   1.4359746747790396e-06   -1.9845844631141382e-05
-2.8255424218073453e-05   1.4359746747790396e-06   -1.9845844631141382e-05
-2.8255424218073453e-05   1.4359746747790396e-06   -1.9845844631141382e-05
-2.8255424218073453e-05   1.4359746747790396e-06   -1.9845844631141382e-05
-3.9435707561971515e-05   0.0   -4.012387426149934e-05
-3.9435707561971515e-05   0.0   -4.012387426149934e-05
-3.9435707561971515e-05   0.0   -4.012387426149934e-05
-3.9435707561971515e-05   0.0   -4.012387426149934e-05
-1.7179736883791544e-05   4.4668925745922885e-06   -3.5045425311067697e-07
-1.7179736883791544e-05   4.4668925745922885e-06   -3.5045425311067697e-07
-1.7179736883791544e-05   4.4668925745922885e-06   -3.5045425311067697e-07
-1.7179736883791544e-05   4.4668925745922885e-06   -3.5045425311067697e-07
-1.681587955809755e-05   0.0   -3.725122304628957e-05
-1.681587955809755e-05   0.0   -3.725122304628957e-05
-1.681587955809755e-05   0.0   -3.725122304628957e-05
-1.681587955809755e-05   0.0   -3.725122304628957e-05
-3.940784959683336e-05   5.199251051008624e-06   -2.717490279001582e-06
-3.940784959683336e-05   5.199251051008624e-06   -2.717490279001582e-06
-3.940784959683336e-05   5.199251051008624e-06   -2.717490279001582e-06
-3.940784959683336e-05   5.199251051008624e-06   -2.717490279001582e-06
-2.8125793560034524e-05   2.3938760126747827e-06   -1.9837691983999476e-05
-2.8125793560034524e-05   2.3938760126747827e-06   -1.9837691983999476e-05
-2.8125793560034524e-05   2.3938760126747827e-06   -1.9837691983999476e-05
-2.8125793560034524e-05   2.3938760126747827e-06   -1.9837691983999476e-05
-1.8283012766767418e-05   0.0   -3.576707340037673e-05
-1.8283012766767418e-05   0.0   -3.576707340037673e-05
-1.8283012766767418e-05   0.0   -3.576707340037673e-05
-1.8283012766767418e-05   0.0   -3.576707340037673e-05
2.3534611341196356e-06   -3.292025185592918e-07   -1.5704717433671855e-06
2.3534611341196356e-06   -3.292025185592918e-07   -1.5704717433671855e-06
2.3534611341196356e-06   -3.292025185592918e-07   -1.5704717433671855e-06
2.3534611341196356e-06   -3.292025185592918e-07   -1.5704717433671855e-06
2.8062873733699026e-06   0.0   -3.659283592382529e-05
2.8062873733699026e-06   0.0   -3.659283592382529e-05
2.8062873733699026e-06   0.0   -3.659283592382529e-05
2.8062873733699026e-06   0.0   -3.659283592382529e-05
-1.7578178744414998e-05   6.466691156150272e-07   -3.006727196886256e-06
-1.7578178744414998e-05   6.466691156150272e-07   -3.006727196886256e-06
-1.7578178744414998e-05   6.466691156150272e-07   -3.006727196886256e-06
-1.7578178744414998e-05   6.466691156150272e-07   -3.006727196886256e-06
-7.738362696698737e-06   -6.881354362072364e-07   -1.8605537878653254e-05
-7.738362696698737e-06   -6.881354362072364e-07   -1.8605537878653254e-05
-7.738362696698737e-06   -6.881354362072364e-07   -1.8605537878653254e-05
-7.738362696698737e-06   -6.881354362072364e-07   -1.8605537878653254e-05
-1.7578178744414998e-05   0.0   -3.698083739319443e-05
-1.7578178744414998e-05   0.0   -3.698083739319443e-05
-1.7578178744414998e-05   0.0   -3.698083739319443e-05
-1.7578178744414998e-05   0.0   -3.698083739319443e-05
2.8062873733699073e-06   6.466691156150204e-07   -2.618725727517233e-06
2.8062873733699073e-06   6.466691156150204e-07   -2.618725727517233e-06
2.8062873733699073e-06   6.466691156150204e-07   -2.618725727517233e-06
2.8062873733699073e-06   6.466691156150204e-07   -2.618725727517233e-06
3.1645225062730987e-06   0.0   -3.653999865922366e-05
3.1645225062730987e-06   0.0   -3.653999865922366e-05
3.1645225062730987e-06   0.0   -3.653999865922366e-05
3.1645225062730987e-06   0.0   -3.653999865922366e-05
-1.7179736883791513e-05   1.5062334292003895e-06   -3.536639733302883e-06
-1.7179736883791513e-05   1.5062334292003895e-06   -3.536639733302883e-06
-1.7179736883791513e-05   1.5062334292003895e-06   -3.536639733302883e-06
-1.7179736883791513e-05   1.5062334292003895e-06   -3.536639733302883e-06
-7.206828119070947e-06   3.673656116422508e-07   -1.947483365063565e-05
-7.206828119070947e-06   3.673656116422508e-07   -1.947483365063565e-05
-7.206828119070947e-06   3.673656116422508e-07   -1.947483365063565e-05
-7.206828119070947e-06   3.673656116422508e-07   -1.947483365063565e-05
-1.7179736883791544e-05   0.0   -3.7443738716743965e-05
-1.7179736883791544e-05   0.0   -3.7443738716743965e-05
-1.7179736883791544e-05   0.0   -3.7443738716743965e-05
-1.7179736883791544e-05   0.0   -3.7443738716743965e-05
3.1645225062731042e-06   1.5062334292003962e-06   -2.632899675782653e-06
3.1645225062731042e-06   1.5062334292003962e-06   -2.632899675782653e-06
3.1645225062731042e-06   1.5062334292003962e-06   -2.632899675782653e-06
3.1645225062731042e-06   1.5062334292003962e-06   -2.632899675782653e-06
3.6444300714153593e-06   0.0   -3.575035188804006e-05
3.6444300714153593e-06   0.0   -3.575035188804006e-05
3.6444300714153593e-06   0.0   -3.575035188804006e-05
3.6444300714153593e-06   0.0   -3.575035188804006e-05
-1.6815879558097536e-05   2.501451930415808e-06   -3.1507069971013814e-06
-1.6815879558097536e-05   2.501451930415808e-06   -3.1507069971013814e-06
-1.6815879558097536e-05   2.501451930415808e-06   -3.1507069971013814e-06
-1.6815879558097536e-05   2.501451930415808e-06   -3.1507069971013814e-06
-6.767653406188077e-06   1.4111556905865391e-06   -1.9243572839719573e-05
-6.767653406188077e-06   1.4111556905865391e-06   -1.9243572839719573e-05
-6.767653406188077e-06   1.4111556905865391e-06   -1.9243572839719573e-05
-6.767653406188077e-06   1.4111556905865391e-06   -1.9243572839719573e-05
2.35346113411964e-06   0.0   -3.596459491151231e-05
2.35346113411964e-06   0.0   -3.596459491151231e-05
2.35346113411964e-06   0.0   -3.596459491151231e-05
2.35346113411964e-06   0.0   -3.596459491151231e-05
2.4759422192733235e-05   -2.9040606531765235e-06   -3.6376287239554047e-07
2.4759422192733235e-05   -2.9040606531765235e-06   -3.6376287239554047e-07
2.4759422192733235e-05   -2.9040606531765235e-06   -3.6376287239554047e-07
2.4759422192733235e-05   -2.9040606531765235e-06   -3.6376287239554047e-07
2.481101523705381e-05   0.0   -3.790533273574438e-05
2.481101523705381e-05   0.0   -3.790533273574438e-05
2.481101523705381e-05   0.0   -3.790533273574438e-05
2.481101523705381e-05   0.0   -3.790533273574438e-05
2.8062873733699124e-06   -2.187494686531604e-06   8.171051564774105e-08
2.8062873733699124e-06   -2.187494686531604e-06   8.171051564774105e-08
2.8062873733699124e-06   -2.187494686531604e-06   8.171051564774105e-08
2.8062873733699124e-06   -2.187494686531604e-06   8.171051564774105e-08
1.3582238185586725e-05   -1.6172815201933925e-06   -1.8220335404516523e-05
1.3582238185586725e-05   -1.6172815201933925e-06   -1.8220335404516523e-05
1.3582238185586725e-05   -1.6172815201933925e-06   -1.8220335404516523e-05
1.3582238185586725e-05   -1.6172815201933925e-06   -1.8220335404516523e-05
2.8062873733699124e-06   0.0   -3.659283592382542e-05
2.8062873733699124e-06   0.0   -3.659283592382542e-05
2.8062873733699124e-06   0.0   -3.659283592382542e-05
2.8062873733699124e-06   0.0   -3.659283592382542e-05
2.481101523705381e-05   -2.187494686531604e-06   -1.2307862962712237e-06
2.481101523705381e-05   -2.187494686531604e-06   -1.2307862962712237e-06
2.481101523705381e-05   -2.187494686531604e-06   -1.2307862962712237e-06
2.481101523705381e-05   -2.187494686531604e-06   -1.2307862962712237e-06
2.4711274031639537e-05   0.0   -3.736411310441886e-05
2.4711274031639537e-05   0.0   -3.736411310441886e-05
2.4711274031639537e-05   0.0   -3.736411310441886e-05
2.4711274031639537e-05   0.0   -3.736411310441886e-05
3.1645225062731042e-06   -1.373524075325219e-06   -6.28746116946348e-07
3.1645225062731042e-06   -1.373524075325219e-06   -6.28746116946348e-07
3.1645225062731042e-06   -1.373524075325219e-06   -6.28746116946348e-07
3.1645225062731042e-06   -1.373524075325219e-06   -6.28746116946348e-07
1.3758780702504725e-05   -6.427309838278689e-07   -1.8724318965564104e-05
1.3758780702504725e-05   -6.427309838278689e-07   -1.8724318965564104e-05
1.3758780702504725e-05   -6.427309838278689e-07   -1.8724318965564104e-05
1.3758780702504725e-05   -6.427309838278689e-07   -1.8724318965564104e-05
3.1645225062731013e-06   0.0   -3.653999865922369e-05
3.1645225062731013e-06   0.0   -3.653999865922369e-05
3.1645225062731013e-06   0.0   -3.653999865922369e-05
3.1645225062731013e-06   0.0   -3.653999865922369e-05
2.4711274031639537e-05   -1.373524075325219e-06   -1.4528605621414841e-06
2.4711274031639537e-05   -1.373524075325219e-06   -1.4528605621414841e-06
2.4711274031639537e-05   -1.373524075325219e-06   -1.4528605621414841e-06
2.4711274031639537e-05   -1.373524075325219e-06   -1.4528605621414841e-06
2.519612265091236e-05   0.0   -3.591842789839639e-05
2.519612265091236e-05   0.0   -3.591842789839639e-05
2.519612265091236e-05   0.0   -3.591842789839639e-05
2.519612265091236e-05   0.0   -3.591842789839639e-05
3.6444300714153656e-06   -2.801266839271127e-07   1.6913574445487094e-07
3.6444300714153656e-06   -2.801266839271127e-07   1.6913574445487094e-07
3.6444300714153656e-06   -2.801266839271127e-07   1.6913574445487094e-07
3.6444300714153656e-06   -2.801266839271127e-07   1.6913574445487094e-07
1.4180322578592721e-05   5.179756340227846e-07   -1.7869546491610646e-05
1.4180322578592721e-05   5.179756340227846e-07   -1.7869546491610646e-05
1.4180322578592721e-05   5.179756340227846e-07   -1.7869546491610646e-05
1.4180322578592721e-05   5.179756340227846e-07   -1.7869546491610646e-05
2.4759422192733235e-05   0.0   -3.770703130341822e-05
2.4759422192733235e-05   0.0   -3.770703130341822e-05
2.4759422192733235e-05   0.0   -3.770703130341822e-05
2.4759422192733235e-05   0.0   -3.770703130341822e-05
5.593793887633467e-05   -7.366870710387278e-06   9.837040743018762e-06
5.593793887633467e-05   -7.366870710387278e-06   9.837040743018762e-06
5.593793887633467e-05   -7.366870710387278e-06   9.837040743018762e-06
5.593793887633467e-05   -7.366870710387278e-06   9.837040743018762e-06
5.254458028625917e-05   0.0   -4.166375566319857e-05
5.254458028625917e-05   0.0   -4.166375566319857e-05
5.254458028625917e-05   0.0   -4.166375566319857e-05
5.254458028625917e-05   0.0   -4.166375566319857e-05
2.481101523705381e-05   -6.264038212423656e-06   8.317275679597885e-06
2.481101523705381e-05   -6.264038212423656e-06   8.317275679597885e-06
2.481101523705381e-05   -6.264038212423656e-06   8.317275679597885e-06
2.481101523705381e-05   -6.264038212423656e-06   8.317275679597885e-06
3.8652001239496206e-05   -3.2972702998169587e-06   -1.653109507203677e-05
3.8652001239496206e-05   -3.2972702998169587e-06   -1.653109507203677e-05
3.8652001239496206e-05   -3.2972702998169587e-06   -1.653109507203677e-05
3.8652001239496206e-05   -3.2972702998169587e-06   -1.653109507203677e-05
2.481101523705379e-05   0.0   -3.790533273574435e-05
2.481101523705379e-05   0.0   -3.790533273574435e-05
2.481101523705379e-05   0.0   -3.790533273574435e-05
2.481101523705379e-05   0.0   -3.790533273574435e-05
5.254458028625899e-05   -6.264038212423629e-06   4.558852752143671e-06
5.254458028625899e-05   -6.264038212423629e-06   4.558852752143671e-06
5.254458028625899e-05   -6.264038212423629e-06   4.558852752143671e-06
5.254458028625899e-05   -6.264038212423629e-06   4.558852752143671e-06
5.0982712326478145e-05   0.0   -4.0797614862806756e-05
5.0982712326478145e-05   0.0   -4.0797614862806756e-05
5.0982712326478145e-05   0.0   -4.0797614862806756e-05
5.0982712326478145e-05   0.0   -4.0797614862806756e-05
2.4711274031639537e-05   -5.722502930646494e-06   6.421617386978806e-06
2.4711274031639537e-05   -5.722502930646494e-06   6.421617386978806e-06
2.4711274031639537e-05   -5.722502930646494e-06   6.421617386978806e-06
2.4711274031639537e-05   -5.722502930646494e-06   6.421617386978806e-06
3.7896863781765954e-05   -2.4102351058853137e-06   -1.754172622475526e-05
3.7896863781765954e-05   -2.4102351058853137e-06   -1.754172622475526e-05
3.7896863781765954e-05   -2.4102351058853137e-06   -1.754172622475526e-05
3.7896863781765954e-05   -2.4102351058853137e-06   -1.754172622475526e-05
2.4711274031639537e-05   0.0   -3.736411310441886e-05
2.4711274031639537e-05   0.0   -3.736411310441886e-05
2.4711274031639537e-05   0.0   -3.736411310441886e-05
2.4711274031639537e-05   0.0   -3.736411310441886e-05
5.098271232647796e-05   -5.722502930646467e-06   2.988115628590896e-06
5.098271232647796e-05   -5.722502930646467e-06   2.988115628590896e-06
5.098271232647796e-05   -5.722502930646467e-06   2.988115628590896e-06
5.098271232647796e-05   -5.722502930646467e-06   2.988115628590896e-06
4.865297260384614e-05   0.0   -3.8584209723371924e-05
4.865297260384614e-05   0.0   -3.8584209723371924e-05
4.865297260384614e-05   0.0   -3.8584209723371924e-05
4.865297260384614e-05   0.0   -3.8584209723371924e-05
2.519612265091236e-05   -4.442969708292684e-06   3.176322023160048e-06
2.519612265091236e-05   -4.442969708292684e-06   3.176322023160048e-06
2.519612265091236e-05   -4.442969708292684e-06   3.176322023160048e-06
2.519612265091236e-05   -4.442969708292684e-06   3.176322023160048e-06
3.6682123317742884e-05   -1.016747182460948e-06   -1.8022745937056506e-05
3.6682123317742884e-05   -1.016747182460948e-06   -1.8022745937056506e-05
3.6682123317742884e-05   -1.016747182460948e-06   -1.8022745937056506e-05
3.6682123317742884e-05   -1.016747182460948e-06   -1.8022745937056506e-05
-5.466663259667171e-05   6.9765268958063185e-06   -3.5926330941485134e-05
-5.466663259667171e-05   6.9765268958063185e-06   -3.5926330941485134e-05
-5.466663259667171e-05   6.9765268958063185e-06   -3.5926330941485134e-05