<?xml version="1.0"?> 
<VTKFile type="UnstructuredGrid"> 
   <UnstructuredGrid> 
      <Piece NumberOfPoints="6000"  NumberOfCells="1500">  
          <Points>  
             <DataArray type="Float64" NumberOfComponents="3" format="ascii">   
-500.0   0.0   0.0
-450.0   0.0   0.0
-500.0   30.0   0.0
-500.0   0.0   16.666666666666668
-450.0   0.0   0.0
-450.0   30.0   0.0
-500.0   30.0   0.0
-450.0   30.0   16.666666666666668
-500.0   0.0   16.666666666666668
-500.0   30.0   16.666666666666668
-450.0   30.0   16.666666666666668
-500.0   30.0   0.0
-500.0   0.0   16.666666666666668
-450.0   30.0   16.666666666666668
-450.0   0.0   16.666666666666668
-450.0   0.0   0.0
-500.0   0.0   16.666666666666668
-450.0   30.0   16.666666666666668
-450.0   0.0   0.0
-500.0   30.0   0.0
-500.0   0.0   16.666666666666668
-450.0   0.0   16.666666666666668
-500.0   30.0   16.666666666666668
-500.0   0.0   33.333333333333336
-450.0   0.0   16.666666666666668
-450.0   30.0   16.666666666666668
-500.0   30.0   16.666666666666668
-450.0   30.0   33.333333333333336
-500.0   0.0   33.333333333333336
-500.0   30.0   33.333333333333336
-450.0   30.0   33.333333333333336
-500.0   30.0   16.666666666666668
-500.0   0.0   33.333333333333336
-450.0   30.0   33.333333333333336
-450.0   0.0   33.333333333333336
-450.0   0.0   16.666666666666668
-500.0   0.0   33.333333333333336
-450.0   30.0   33.333333333333336
-450.0   0.0   16.666666666666668
-500.0   30.0   16.666666666666668
-500.0   0.0   33.333333333333336
-450.0   0.0   33.333333333333336
-500.0   30.0   33.333333333333336
-500.0   0.0   50.0
-450.0   0.0   33.333333333333336
-450.0   30.0   33.333333333333336
-500.0   30.0   33.333333333333336
-450.0   30.0   50.0
-500.0   0.0   50.0
-500.0   30.0   50.0
-450.0   30.0   50.0
-500.0   30.0   33.333333333333336
-500.0   0.0   50.0
-450.0   30.0   50.0
-450.0   0.0   50.0
-450.0   0.0   33.333333333333336
-500.0   0.0   50.0
-450.0   30.0   50.0
-450.0   0.0   33.333333333333336
-500.0   30.0   33.333333333333336
-500.0   30.0   0.0
-450.0   30.0   0.0
-500.0   60.0   0.0
-500.0   30.0   16.666666666666668
-450.0   30.0   0.0
-450.0   60.0   0.0
-500.0   60.0   0.0
-450.0   60.0   16.666666666666668
-500.0   30.0   16.666666666666668
-500.0   60.0   16.666666666666668
-450.0   60.0   16.666666666666668
-500.0   60.0   0.0
-500.0   30.0   16.666666666666668
-450.0   60.0   16.666666666666668
-450.0   30.0   16.666666666666668
-450.0   30.0   0.0
-500.0   30.0   16.666666666666668
-450.0   60.0   16.666666666666668
-450.0   30.0   0.0
-500.0   60.0   0.0
-500.0   30.0   16.666666666666668
-450.0   30.0   16.666666666666668
-500.0   60.0   16.666666666666668
-500.0   30.0   33.333333333333336
-450.0   30.0   16.666666666666668
-450.0   60.0   16.666666666666668
-500.0   60.0   16.666666666666668
-450.0   60.0   33.333333333333336
-500.0   30.0   33.333333333333336
-500.0   60.0   33.333333333333336
-450.0   60.0   33.333333333333336
-500.0   60.0   16.666666666666668
-500.0   30.0   33.333333333333336
-450.0   60.0   33.333333333333336
-450.0   30.0   33.333333333333336
-450.0   30.0   16.666666666666668
-500.0   30.0   33.333333333333336
-450.0   60.0   33.333333333333336
-450.0   30.0   16.666666666666668
-500.0   60.0   16.666666666666668
-500.0   30.0   33.333333333333336
-450.0   30.0   33.333333333333336
-500.0   60.0   33.333333333333336
-500.0   30.0   50.0
-450.0   30.0   33.333333333333336
-450.0   60.0   33.333333333333336
-500.0   60.0   33.333333333333336
-450.0   60.0   50.0
-500.0   30.0   50.0
-500.0   60.0   50.0
-450.0   60.0   50.0
-500.0   60.0   33.333333333333336
-500.0   30.0   50.0
-450.0   60.0   50.0
-450.0   30.0   50.0
-450.0   30.0   33.333333333333336
-500.0   30.0   50.0
-450.0   60.0   50.0
-450.0   30.0   33.333333333333336
-500.0   60.0   33.333333333333336
-500.0   60.0   0.0
-450.0   60.0   0.0
-500.0   90.0   0.0
-500.0   60.0   16.666666666666668
-450.0   60.0   0.0
-450.0   90.0   0.0
-500.0   90.0   0.0
-450.0   90.0   16.666666666666668
-500.0   60.0   16.666666666666668
-500.0   90.0   16.666666666666668
-450.0   90.0   16.666666666666668
-500.0   90.0   0.0
-500.0   60.0   16.666666666666668
-450.0   90.0   16.666666666666668
-450.0   60.0   16.666666666666668
-450.0   60.0   0.0
-500.0   60.0   16.666666666666668
-450.0   90.0   16.666666666666668
-450.0   60.0   0.0
-500.0   90.0   0.0
-500.0   60.0   16.666666666666668
-450.0   60.0   16.666666666666668
-500.0   90.0   16.666666666666668
-500.0   60.0   33.333333333333336
-450.0   60.0   16.666666666666668
-450.0   90.0   16.666666666666668
-500.0   90.0   16.666666666666668
-450.0   90.0   33.333333333333336
-500.0   60.0   33.333333333333336
-500.0   90.0   33.333333333333336
-450.0   90.0   33.333333333333336
-500.0   90.0   16.666666666666668
-500.0   60.0   33.333333333333336
-450.0   90.0   33.333333333333336
-450.0   60.0   33.333333333333336
-450.0   60.0   16.666666666666668
-500.0   60.0   33.333333333333336
-450.0   90.0   33.333333333333336
-450.0   60.0   16.666666666666668
-500.0   90.0   16.666666666666668
-500.0   60.0   33.333333333333336
-450.0   60.0   33.333333333333336
-500.0   90.0   33.333333333333336
-500.0   60.0   50.0
-450.0   60.0   33.333333333333336
-450.0   90.0   33.333333333333336
-500.0   90.0   33.333333333333336
-450.0   90.0   50.0
-500.0   60.0   50.0
-500.0   90.0   50.0
-450.0   90.0   50.0
-500.0   90.0   33.333333333333336
-500.0   60.0   50.0
-450.0   90.0   50.0
-450.0   60.0   50.0
-450.0   60.0   33.333333333333336
-500.0   60.0   50.0
-450.0   90.0   50.0
-450.0   60.0   33.333333333333336
-500.0   90.0   33.333333333333336
-500.0   90.0   0.0
-450.0   90.0   0.0
-500.0   120.0   0.0
-500.0   90.0   16.666666666666668
-450.0   90.0   0.0
-450.0   120.0   0.0
-500.0   120.0   0.0
-450.0   120.0   16.666666666666668
-500.0   90.0   16.666666666666668
-500.0   120.0   16.666666666666668
-450.0   120.0   16.666666666666668
-500.0   120.0   0.0
-500.0   90.0   16.666666666666668
-450.0   120.0   16.666666666666668
-450.0   90.0   16.666666666666668
-450.0   90.0   0.0
-500.0   90.0   16.666666666666668
-450.0   120.0   16.666666666666668
-450.0   90.0   0.0
-500.0   120.0   0.0
-500.0   90.0   16.666666666666668
-450.0   90.0   16.666666666666668
-500.0   120.0   16.666666666666668
-500.0   90.0   33.333333333333336
-450.0   90.0   16.666666666666668
-450.0   120.0   16.666666666666668
-500.0   120.0   16.666666666666668
-450.0   120.0   33.333333333333336
-500.0   90.0   33.333333333333336
-500.0   120.0   33.333333333333336
-450.0   120.0   33.333333333333336
-500.0   120.0   16.666666666666668
-500.0   90.0   33.333333333333336
-450.0   120.0   33.333333333333336
-450.0   90.0   33.333333333333336
-450.0   90.0   16.666666666666668
-500.0   90.0   33.333333333333336
-450.0   120.0   33.333333333333336
-450.0   90.0   16.666666666666668
-500.0   120.0   16.666666666666668
-500.0   90.0   33.333333333333336
-450.0   90.0   33.333333333333336
-500.0   120.0   33.333333333333336
-500.0   90.0   50.0
-450.0   90.0   33.333333333333336
-450.0   120.0   33.333333333333336
-500.0   120.0   33.333333333333336
-450.0   120.0   50.0
-500.0   90.0   50.0
-500.0   120.0   50.0
-450.0   120.0   50.0
-500.0   120.0   33.333333333333336
-500.0   90.0   50.0
-450.0   120.0   50.0
-450.0   90.0   50.0
-450.0   90.0   33.333333333333336
-500.0   90.0   50.0
-450.0   120.0   50.0
-450.0   90.0   33.333333333333336
-500.0   120.0   33.333333333333336
-500.0   120.0   0.0
-450.0   120.0   0.0
-500.0   150.0   0.0
-500.0   120.0   16.666666666666668
-450.0   120.0   0.0
-450.0   150.0   0.0
-500.0   150.0   0.0
-450.0   150.0   16.666666666666668
-500.0   120.0   16.666666666666668
-500.0   150.0   16.666666666666668
-450.0   150.0   16.666666666666668
-500.0   150.0   0.0
-500.0   120.0   16.666666666666668
-450.0   150.0   16.666666666666668
-450.0   120.0   16.666666666666668
-450.0   120.0   0.0
-500.0   120.0   16.666666666666668
-450.0   150.0   16.666666666666668
-450.0   120.0   0.0
-500.0   150.0   0.0
-500.0   120.0   16.666666666666668
-450.0   120.0   16.666666666666668
-500.0   150.0   16.666666666666668
-500.0   120.0   33.333333333333336
-450.0   120.0   16.666666666666668
-450.0   150.0   16.666666666666668
-500.0   150.0   16.666666666666668
-450.0   150.0   33.333333333333336
-500.0   120.0   33.333333333333336
-500.0   150.0   33.333333333333336
-450.0   150.0   33.333333333333336
-500.0   150.0   16.666666666666668
-500.0   120.0   33.333333333333336
-450.0   150.0   33.333333333333336
-450.0   120.0   33.333333333333336
-450.0   120.0   16.666666666666668
-500.0   120.0   33.333333333333336
-450.0   150.0   33.333333333333336
-450.0   120.0   16.666666666666668
-500.0   150.0   16.666666666666668
-500.0   120.0   33.333333333333336
-450.0   120.0   33.333333333333336
-500.0   150.0   33.333333333333336
-500.0   120.0   50.0
-450.0   120.0   33.333333333333336
-450.0   150.0   33.333333333333336
-500.0   150.0   33.333333333333336
-450.0   150.0   50.0
-500.0   120.0   50.0
-500.0   150.0   50.0
-450.0   150.0   50.0
-500.0   150.0   33.333333333333336
-500.0   120.0   50.0
-450.0   150.0   50.0
-450.0   120.0   50.0
-450.0   120.0   33.333333333333336
-500.0   120.0   50.0
-450.0   150.0   50.0
-450.0   120.0   33.333333333333336
-500.0   150.0   33.333333333333336
-450.0   0.0   0.0
-400.0   0.0   0.0
-450.0   30.0   0.0
-450.0   0.0   16.666666666666668
-400.0   0.0   0.0
-400.0   30.0   0.0
-450.0   30.0   0.0
-400.0   30.0   16.666666666666668
-450.0   0.0   16.666666666666668
-450.0   30.0   16.666666666666668
-400.0   30.0   16.666666666666668
-450.0   30.0   0.0
-450.0   0.0   16.666666666666668
-400.0   30.0   16.666666666666668
-400.0   0.0   16.666666666666668
-400.0   0.0   0.0
-450.0   0.0   16.666666666666668
-400.0   30.0   16.666666666666668
-400.0   0.0   0.0
-450.0   30.0   0.0
-450.0   0.0   16.666666666666668
-400.0   0.0   16.666666666666668
-450.0   30.0   16.666666666666668
[...]
          <PointData>  
             <DataArray type="Float64" NumberOfComponents="3" Name="Strains" format="ascii">   
-5.056313829227386e-05   0.0   -3.330651037324857e-05
-5.056313829227386e-05   0.0   -3.330651037324857e-05
-5.056313829227386e-05   0.0   -3.330651037324857e-05
-5.056313829227386e-05   0.0   -3.330651037324857e-05
-3.216225291142045e-05   5.585260096377624e-06   7.127879860002918e-07
-3.216225291142045e-05   5.585260096377624e-06   7.127879860002918e-07
-3.216225291142045e-05   5.585260096377624e-06   7.127879860002918e-07
-3.216225291142045e-05   5.585260096377624e-06   7.127879860002918e-07
-3.1517942177977736e-05   0.0   -3.1450820941147166e-05
-3.1517942177977736e-05   0.0   -3.1450820941147166e-05
-3.1517942177977736e-05   0.0   -3.1450820941147166e-05
-3.1517942177977736e-05   0.0   -3.1450820941147166e-05
-5.290652083237546e-05   6.71030966316527e-06   1.7062435161669211e-07
-5.290652083237546e-05   6.71030966316527e-06   1.7062435161669211e-07
-5.290652083237546e-05   6.71030966316527e-06   1.7062435161669211e-07
-5.290652083237546e-05   6.71030966316527e-06   1.7062435161669211e-07
-4.104054023512573e-05   1.5464078600844969e-06   -1.6507668895284386e-05
-4.104054023512573e-05   1.5464078600844969e-06   -1.6507668895284386e-05
-4.104054023512573e-05   1.5464078600844969e-06   -1.6507668895284386e-05
-4.104054023512573e-05   1.5464078600844969e-06   -1.6507668895284386e-05
-5.290652083237555e-05   0.0   -3.547700673904633e-05
-5.290652083237555e-05   0.0   -3.547700673904633e-05
-5.290652083237555e-05   0.0   -3.547700673904633e-05
-5.290652083237555e-05   0.0   -3.547700673904633e-05
-3.1517942177977736e-05   6.710309663165276e-06   4.196810149515858e-06
-3.1517942177977736e-05   6.710309663165276e-06   4.196810149515858e-06
-3.1517942177977736e-05   6.710309663165276e-06   4.196810149515858e-06
-3.1517942177977736e-05   6.710309663165276e-06   4.196810149515858e-06
-3.15979123117798e-05   0.0   -3.2218226675339044e-05
-3.15979123117798e-05   0.0   -3.2218226675339044e-05
-3.15979123117798e-05   0.0   -3.2218226675339044e-05
-3.15979123117798e-05   0.0   -3.2218226675339044e-05
-5.4548162252190436e-05   7.191186078055734e-06   1.7174782451787128e-06
-5.4548162252190436e-05   7.191186078055734e-06   1.7174782451787128e-06
-5.4548162252190436e-05   7.191186078055734e-06   1.7174782451787128e-06
-5.4548162252190436e-05   7.191186078055734e-06   1.7174782451787128e-06
-4.22522165720776e-05   2.7156500530894044e-06   -1.6090442940029527e-05
-4.22522165720776e-05   2.7156500530894044e-06   -1.6090442940029527e-05
-4.22522165720776e-05   2.7156500530894044e-06   -1.6090442940029527e-05
-4.22522165720776e-05   2.7156500530894044e-06   -1.6090442940029527e-05
-5.454816225219053e-05   0.0   -3.653293832217249e-05
-5.454816225219053e-05   0.0   -3.653293832217249e-05
-5.454816225219053e-05   0.0   -3.653293832217249e-05
-5.454816225219053e-05   0.0   -3.653293832217249e-05
-3.15979123117798e-05   7.191186078055748e-06   6.0321898920121615e-06
-3.15979123117798e-05   7.191186078055748e-06   6.0321898920121615e-06
-3.15979123117798e-05   7.191186078055748e-06   6.0321898920121615e-06
-3.15979123117798e-05   7.191186078055748e-06   6.0321898920121615e-06
-3.1571252883419025e-05   0.0   -3.2416825308897343e-05
-3.1571252883419025e-05   0.0   -3.2416825308897343e-05
-3.1571252883419025e-05   0.0   -3.2416825308897343e-05
-3.1571252883419025e-05   0.0   -3.2416825308897343e-05
-5.8093558326683166e-05   8.198794460607359e-06   6.86774042017862e-06
-5.8093558326683166e-05   8.198794460607359e-06   6.86774042017862e-06
-5.8093558326683166e-05   8.198794460607359e-06   6.86774042017862e-06
-5.8093558326683166e-05   8.198794460607359e-06   6.86774042017862e-06
-4.3059707567804704e-05   3.4300941777292877e-06   -1.532745734155862e-05
-4.3059707567804704e-05   3.4300941777292877e-06   -1.532745734155862e-05
-4.3059707567804704e-05   3.4300941777292877e-06   -1.532745734155862e-05
-4.3059707567804704e-05   3.4300941777292877e-06   -1.532745734155862e-05
-3.2162252911420506e-05   0.0   -2.9955354315421987e-05
-3.2162252911420506e-05   0.0   -2.9955354315421987e-05
-3.2162252911420506e-05   0.0   -2.9955354315421987e-05
-3.2162252911420506e-05   0.0   -2.9955354315421987e-05
-1.4657174646692313e-05   2.0453346625802323e-06   4.469769233397961e-07
-1.4657174646692313e-05   2.0453346625802323e-06   4.469769233397961e-07
-1.4657174646692313e-05   2.0453346625802323e-06   4.469769233397961e-07
-1.4657174646692313e-05   2.0453346625802323e-06   4.469769233397961e-07
-1.408837330163973e-05   0.0   -2.9700471844035378e-05
-1.408837330163973e-05   0.0   -2.9700471844035378e-05
-1.408837330163973e-05   0.0   -2.9700471844035378e-05
-1.408837330163973e-05   0.0   -2.9700471844035378e-05
-3.1517942177977736e-05   2.9172484951863075e-06   -2.4015394805838216e-06
-3.1517942177977736e-05   2.9172484951863075e-06   -2.4015394805838216e-06
-3.1517942177977736e-05   2.9172484951863075e-06   -2.4015394805838216e-06
-3.1517942177977736e-05   2.9172484951863075e-06   -2.4015394805838216e-06
-2.312531310653008e-05   2.12402059488842e-07   -1.4766346738244662e-05
-2.312531310653008e-05   2.12402059488842e-07   -1.4766346738244662e-05
-2.312531310653008e-05   2.12402059488842e-07   -1.4766346738244662e-05
-2.312531310653008e-05   2.12402059488842e-07   -1.4766346738244662e-05
-3.151794217797771e-05   0.0   -3.145082094114714e-05
-3.151794217797771e-05   0.0   -3.145082094114714e-05
-3.151794217797771e-05   0.0   -3.145082094114714e-05
-3.151794217797771e-05   0.0   -3.145082094114714e-05
-1.408837330163973e-05   2.9172484951863075e-06   -6.511903834720364e-07
-1.408837330163973e-05   2.9172484951863075e-06   -6.511903834720364e-07
-1.408837330163973e-05   2.9172484951863075e-06   -6.511903834720364e-07
-1.408837330163973e-05   2.9172484951863075e-06   -6.511903834720364e-07
-1.3765272299990237e-05   0.0   -3.0071449042219736e-05
-1.3765272299990237e-05   0.0   -3.0071449042219736e-05
-1.3765272299990237e-05   0.0   -3.0071449042219736e-05
-1.3765272299990237e-05   0.0   -3.0071449042219736e-05
-3.15979123117798e-05   3.5779627218655077e-06   -2.497159989023108e-06
-3.15979123117798e-05   3.5779627218655077e-06   -2.497159989023108e-06
-3.15979123117798e-05   3.5779627218655077e-06   -2.497159989023108e-06
-3.15979123117798e-05   3.5779627218655077e-06   -2.497159989023108e-06
-2.2641607238983942e-05   1.1494765824395268e-06   -1.5967243426693812e-05
-2.2641607238983942e-05   1.1494765824395268e-06   -1.5967243426693812e-05
-2.2641607238983942e-05   1.1494765824395268e-06   -1.5967243426693812e-05
-2.2641607238983942e-05   1.1494765824395268e-06   -1.5967243426693812e-05
-3.15979123117798e-05   0.0   -3.2218226675339044e-05
-3.15979123117798e-05   0.0   -3.2218226675339044e-05
-3.15979123117798e-05   0.0   -3.2218226675339044e-05
-3.15979123117798e-05   0.0   -3.2218226675339044e-05
-1.3765272299990237e-05   3.5779627218655077e-06   -3.5038235590380333e-07
-1.3765272299990237e-05   3.5779627218655077e-06   -3.5038235590380333e-07
-1.3765272299990237e-05   3.5779627218655077e-06   -3.5038235590380333e-07
-1.3765272299990237e-05   3.5779627218655077e-06   -3.5038235590380333e-07
-1.3469590650333723e-05   0.0   -2.9917530057066363e-05
-1.3469590650333723e-05   0.0   -2.9917530057066363e-05
-1.3469590650333723e-05   0.0   -2.9917530057066363e-05
-1.3469590650333723e-05   0.0   -2.9917530057066363e-05
-3.1571252883418944e-05   4.165492086384917e-06   -2.247388253755169e-06
-3.1571252883418944e-05   4.165492086384917e-06   -2.247388253755169e-06
-3.1571252883418944e-05   4.165492086384917e-06   -2.247388253755169e-06
-3.1571252883418944e-05   4.165492086384917e-06   -2.247388253755169e-06
-2.2533751481056754e-05   1.917247181893879e-06   -1.596094364833097e-05
-2.2533751481056754e-05   1.917247181893879e-06   -1.596094364833097e-05
-2.2533751481056754e-05   1.917247181893879e-06   -1.596094364833097e-05
-2.2533751481056754e-05   1.917247181893879e-06   -1.596094364833097e-05
-1.4657174646692338e-05   0.0   -2.8728153517873845e-05
-1.4657174646692338e-05   0.0   -2.8728153517873845e-05
-1.4657174646692338e-05   0.0   -2.8728153517873845e-05
-1.4657174646692338e-05   0.0   -2.8728153517873845e-05
1.8742159409552304e-06   -2.6438502896966793e-07   -1.3344668891763401e-06
1.8742159409552304e-06   -2.6438502896966793e-07   -1.3344668891763401e-06
1.8742159409552304e-06   -2.6438502896966793e-07   -1.3344668891763401e-06
1.8742159409552304e-06   -2.6438502896966793e-07   -1.3344668891763401e-06
2.2414139848588577e-06   0.0   -2.938954162850919e-05
2.2414139848588577e-06   0.0   -2.938954162850919e-05
2.2414139848588577e-06   0.0   -2.938954162850919e-05
2.2414139848588577e-06   0.0   -2.938954162850919e-05
-1.408837330163973e-05   5.182170258768136e-07   -2.484159699871056e-06
-1.408837330163973e-05   5.182170258768136e-07   -2.484159699871056e-06
-1.408837330163973e-05   5.182170258768136e-07   -2.484159699871056e-06
-1.408837330163973e-05   5.182170258768136e-07   -2.484159699871056e-06
-6.207880330916726e-06   -5.511567588628707e-07   -1.4976690380232195e-05
-6.207880330916726e-06   -5.511567588628707e-07   -1.4976690380232195e-05
-6.207880330916726e-06   -5.511567588628707e-07   -1.4976690380232195e-05
-6.207880330916726e-06   -5.511567588628707e-07   -1.4976690380232195e-05
-1.408837330163973e-05   0.0   -2.9700471844035378e-05
-1.408837330163973e-05   0.0   -2.9700471844035378e-05
-1.408837330163973e-05   0.0   -2.9700471844035378e-05
-1.408837330163973e-05   0.0   -2.9700471844035378e-05
2.2414139848588615e-06   5.182170258768068e-07   -2.173229484344964e-06
2.2414139848588615e-06   5.182170258768068e-07   -2.173229484344964e-06
2.2414139848588615e-06   5.182170258768068e-07   -2.173229484344964e-06
2.2414139848588615e-06   5.182170258768068e-07   -2.173229484344964e-06
2.532408428955405e-06   0.0   -2.934681076410236e-05
2.532408428955405e-06   0.0   -2.934681076410236e-05
2.532408428955405e-06   0.0   -2.934681076410236e-05
2.532408428955405e-06   0.0   -2.934681076410236e-05
-1.3765272299990213e-05   1.2077304635288742e-06   -2.90864782731032e-06
-1.3765272299990213e-05   1.2077304635288742e-06   -2.90864782731032e-06
-1.3765272299990213e-05   1.2077304635288742e-06   -2.90864782731032e-06
-1.3765272299990213e-05   1.2077304635288742e-06   -2.90864782731032e-06
-5.7779824363421605e-06   2.9471756661081017e-07   -1.567298986190627e-05
-5.7779824363421605e-06   2.9471756661081017e-07   -1.567298986190627e-05
-5.7779824363421605e-06   2.9471756661081017e-07   -1.567298986190627e-05
-5.7779824363421605e-06   2.9471756661081017e-07   -1.567298986190627e-05
-1.3765272299990237e-05   0.0   -3.0071449042219736e-05
-1.3765272299990237e-05   0.0   -3.0071449042219736e-05
-1.3765272299990237e-05   0.0   -3.0071449042219736e-05
-1.3765272299990237e-05   0.0   -3.0071449042219736e-05
2.5324084289554093e-06   1.207730463528881e-06   -2.184009549193003e-06
2.5324084289554093e-06   1.207730463528881e-06   -2.184009549193003e-06
2.5324084289554093e-06   1.207730463528881e-06   -2.184009549193003e-06
2.5324084289554093e-06   1.207730463528881e-06   -2.184009549193003e-06
2.920983109736526e-06   0.0   -2.8714030474044407e-05
2.920983109736526e-06   0.0   -2.8714030474044407e-05
2.920983109736526e-06   0.0   -2.8714030474044407e-05
2.920983109736526e-06   0.0   -2.8714030474044407e-05
-1.3469590650333711e-05   2.0058326383698785e-06   -2.5999071236159454e-06
-1.3469590650333711e-05   2.0058326383698785e-06   -2.5999071236159454e-06
-1.3469590650333711e-05   2.0058326383698785e-06   -2.5999071236159454e-06
-1.3469590650333711e-05   2.0058326383698785e-06   -2.5999071236159454e-06
-5.422144595126843e-06   1.131182140146061e-06   -1.5487526916693087e-05
-5.422144595126843e-06   1.131182140146061e-06   -1.5487526916693087e-05
-5.422144595126843e-06   1.131182140146061e-06   -1.5487526916693087e-05
-5.422144595126843e-06   1.131182140146061e-06   -1.5487526916693087e-05
1.8742159409552338e-06   0.0   -2.888678453525565e-05
1.8742159409552338e-06   0.0   -2.888678453525565e-05
1.8742159409552338e-06   0.0   -2.888678453525565e-05
1.8742159409552338e-06   0.0   -2.888678453525565e-05
1.9826375837326846e-05   -2.325478356062012e-06   -3.6180505494015023e-07
1.9826375837326846e-05   -2.325478356062012e-06   -3.6180505494015023e-07
1.9826375837326846e-05   -2.325478356062012e-06   -3.6180505494015023e-07
1.9826375837326846e-05   -2.325478356062012e-06   -3.6180505494015023e-07
1.9872527721588368e-05   0.0   -3.0439895491496498e-05
1.9872527721588368e-05   0.0   -3.0439895491496498e-05
1.9872527721588368e-05   0.0   -3.0439895491496498e-05
1.9872527721588368e-05   0.0   -3.0439895491496498e-05
2.2414139848588653e-06   -1.750589771645341e-06   -4.352067293459848e-09
2.2414139848588653e-06   -1.750589771645341e-06   -4.352067293459848e-09
2.2414139848588653e-06   -1.750589771645341e-06   -4.352067293459848e-09
2.2414139848588653e-06   -1.750589771645341e-06   -4.352067293459848e-09
1.0873371831271801e-05   -1.2942591302007072e-06   -1.4664746862848453e-05
1.0873371831271801e-05   -1.2942591302007072e-06   -1.4664746862848453e-05
1.0873371831271801e-05   -1.2942591302007072e-06   -1.4664746862848453e-05
1.0873371831271801e-05   -1.2942591302007072e-06   -1.4664746862848453e-05
2.2414139848588653e-06   0.0   -2.938954162850929e-05
2.2414139848588653e-06   0.0   -2.938954162850929e-05
2.2414139848588653e-06   0.0   -2.938954162850929e-05
2.2414139848588653e-06   0.0   -2.938954162850929e-05
1.9872527721588368e-05   -1.750589771645341e-06   -1.0547059302806622e-06
1.9872527721588368e-05   -1.750589771645341e-06   -1.0547059302806622e-06
1.9872527721588368e-05   -1.750589771645341e-06   -1.0547059302806622e-06
1.9872527721588368e-05   -1.750589771645341e-06   -1.0547059302806622e-06
1.9796807612470722e-05   0.0   -3.0005303346384105e-05
1.9796807612470722e-05   0.0   -3.0005303346384105e-05
1.9796807612470722e-05   0.0   -3.0005303346384105e-05
1.9796807612470722e-05   0.0   -3.0005303346384105e-05
2.5324084289554093e-06   -1.0974876371361623e-06   -5.728121249102265e-07
2.5324084289554093e-06   -1.0974876371361623e-06   -5.728121249102265e-07
2.5324084289554093e-06   -1.0974876371361623e-06   -5.728121249102265e-07
2.5324084289554093e-06   -1.0974876371361623e-06   -5.728121249102265e-07
1.1019110798664794e-05   -5.131347648956777e-07   -1.5067927797770142e-05
1.1019110798664794e-05   -5.131347648956777e-07   -1.5067927797770142e-05
1.1019110798664794e-05   -5.131347648956777e-07   -1.5067927797770142e-05
1.1019110798664794e-05   -5.131347648956777e-07   -1.5067927797770142e-05
2.532408428955407e-06   0.0   -2.9346810764102383e-05
2.532408428955407e-06   0.0   -2.9346810764102383e-05
2.532408428955407e-06   0.0   -2.9346810764102383e-05
2.532408428955407e-06   0.0   -2.9346810764102383e-05
1.9796807612470722e-05   -1.0974876371361623e-06   -1.2313047071919214e-06
1.9796807612470722e-05   -1.0974876371361623e-06   -1.2313047071919214e-06
1.9796807612470722e-05   -1.0974876371361623e-06   -1.2313047071919214e-06
1.9796807612470722e-05   -1.0974876371361623e-06   -1.2313047071919214e-06
2.0189235753831654e-05   0.0   -2.8846292355595893e-05
2.0189235753831654e-05   0.0   -2.8846292355595893e-05
2.0189235753831654e-05   0.0   -2.8846292355595893e-05
2.0189235753831654e-05   0.0   -2.8846292355595893e-05
2.9209831097365312e-06   -2.2043646925239092e-07   6.63905994474098e-08
2.9209831097365312e-06   -2.2043646925239092e-07   6.63905994474098e-08
2.9209831097365312e-06   -2.2043646925239092e-07   6.63905994474098e-08
2.9209831097365312e-06   -2.2043646925239092e-07   6.63905994474098e-08
1.1360822091393523e-05   4.170986737554284e-07   -1.4382528789118928e-05
1.1360822091393523e-05   4.170986737554284e-07   -1.4382528789118928e-05
1.1360822091393523e-05   4.170986737554284e-07   -1.4382528789118928e-05
1.1360822091393523e-05   4.170986737554284e-07   -1.4382528789118928e-05
1.9826375837326846e-05   0.0   -3.0282071548892857e-05
1.9826375837326846e-05   0.0   -3.0282071548892857e-05
1.9826375837326846e-05   0.0   -3.0282071548892857e-05
1.9826375837326846e-05   0.0   -3.0282071548892857e-05
4.481849261607054e-05   -5.90240789799221e-06   7.83001167688488e-06
4.481849261607054e-05   -5.90240789799221e-06   7.83001167688488e-06
4.481849261607054e-05   -5.90240789799221e-06   7.83001167688488e-06
4.481849261607054e-05   -5.90240789799221e-06   7.83001167688488e-06
4.2105952049362094e-05   0.0   -3.3449648038125993e-05
4.2105952049362094e-05   0.0   -3.3449648038125993e-05
4.2105952049362094e-05   0.0   -3.3449648038125993e-05
4.2105952049362094e-05   0.0   -3.3449648038125993e-05
1.9872527721588368e-05   -5.016254244382499e-06   6.615811721459712e-06
1.9872527721588368e-05   -5.016254244382499e-06   6.615811721459712e-06
1.9872527721588368e-05   -5.016254244382499e-06   6.615811721459712e-06
1.9872527721588368e-05   -5.016254244382499e-06   6.615811721459712e-06
3.096616394334447e-05   -2.6396470743609508e-06   -1.3299546283480033e-05
3.096616394334447e-05   -2.6396470743609508e-06   -1.3299546283480033e-05
3.096616394334447e-05   -2.6396470743609508e-06   -1.3299546283480033e-05
3.096616394334447e-05   -2.6396470743609508e-06   -1.3299546283480033e-05
1.987252772158835e-05   0.0   -3.043989549149647e-05
1.987252772158835e-05   0.0   -3.043989549149647e-05
1.987252772158835e-05   0.0   -3.043989549149647e-05
1.987252772158835e-05   0.0   -3.043989549149647e-05
4.210595204936195e-05   -5.016254244382479e-06   3.6060591748301893e-06
4.210595204936195e-05   -5.016254244382479e-06   3.6060591748301893e-06
4.210595204936195e-05   -5.016254244382479e-06   3.6060591748301893e-06
4.210595204936195e-05   -5.016254244382479e-06   3.6060591748301893e-06
4.085933297451396e-05   0.0   -3.275431449443237e-05
4.085933297451396e-05   0.0   -3.275431449443237e-05
4.085933297451396e-05   0.0   -3.275431449443237e-05
4.085933297451396e-05   0.0   -3.275431449443237e-05
1.9796807612470722e-05   -4.581685246747111e-06   5.098905590354615e-06
1.9796807612470722e-05   -4.581685246747111e-06   5.098905590354615e-06
1.9796807612470722e-05   -4.581685246747111e-06   5.098905590354615e-06
1.9796807612470722e-05   -4.581685246747111e-06   5.098905590354615e-06
3.0365930348051143e-05   -1.928682502446566e-06   -1.410810061552642e-05
3.0365930348051143e-05   -1.928682502446566e-06   -1.410810061552642e-05
3.0365930348051143e-05   -1.928682502446566e-06   -1.410810061552642e-05
3.0365930348051143e-05   -1.928682502446566e-06   -1.410810061552642e-05
1.9796807612470722e-05   0.0   -3.0005303346384105e-05
1.9796807612470722e-05   0.0   -3.0005303346384105e-05
1.9796807612470722e-05   0.0   -3.0005303346384105e-05
1.9796807612470722e-05   0.0   -3.0005303346384105e-05
4.0859332974513816e-05   -4.581685246747097e-06   2.349894442306327e-06
4.0859332974513816e-05   -4.581685246747097e-06   2.349894442306327e-06
4.0859332974513816e-05   -4.581685246747097e-06   2.349894442306327e-06
4.0859332974513816e-05   -4.581685246747097e-06   2.349894442306327e-06
3.899690401126403e-05   0.0   -3.0978830960279285e-05
3.899690401126403e-05   0.0   -3.0978830960279285e-05
3.899690401126403e-05   0.0   -3.0978830960279285e-05
3.899690401126403e-05   0.0   -3.0978830960279285e-05
2.0189235753831654e-05   -3.5542310078057394e-06   2.4998214067915067e-06
2.0189235753831654e-05   -3.5542310078057394e-06   2.4998214067915067e-06
2.0189235753831654e-05   -3.5542310078057394e-06   2.4998214067915067e-06
2.0189235753831654e-05   -3.5542310078057394e-06   2.4998214067915067e-06
2.9396855811867412e-05   -8.112730115793635e-07   -1.4491986821003897e-05
2.9396855811867412e-05   -8.112730115793635e-07   -1.4491986821003897e-05
2.9396855811867412e-05   -8.112730115793635e-07   -1.4491986821003897e-05
2.9396855811867412e-05   -8.112730115793635e-07   -1.4491986821003897e-05
-4.378051475921633e-05   5.585260096377617e-06   -2.880669767061899e-05
-4.378051475921633e-05   5.585260096377617e-06   -2.880669767061899e-05