<?xml version="1.0"?> 
<VTKFile type="UnstructuredGrid"> 
   <UnstructuredGrid> 
      <Piece NumberOfPoints="6000"  NumberOfCells="1500">  
          <Points>  
             <DataArray type="Float64" NumberOfComponents="3" format="ascii">   
-500.0   0.0   0.0
-450.0   0.0   0.0
-500.0   30.0   0.0
-500.0   0.0   16.666666666666668
-450.0   0.0   0.0
-450.0   30.0   0.0
-500.0   30.0   0.0
-450.0   30.0   16.666666666666668
-500.0   0.0   16.666666666666668
-500.0   30.0   16.666666666666668
-450.0   30.0   16.666666666666668
-500.0   30.0   0.0
-500.0   0.0   16.666666666666668
-450.0   30.0   16.666666666666668
-450.0   0.0   16.666666666666668
-450.0   0.0   0.0
-500.0   0.0   16.666666666666668
-450.0   30.0   16.666666666666668
-450.0   0.0   0.0
-500.0   30.0   0.0
-500.0   0.0   16.666666666666668
-450.0   0.0   16.666666666666668
-500.0   30.0   16.666666666666668
-500.0   0.0   33.333333333333336
-450.0   0.0   16.666666666666668
-450.0   30.0   16.666666666666668
-500.0   30.0   16.666666666666668
-450.0   30.0   33.333333333333336
-500.0   0.0   33.333333333333336
-500.0   30.0   33.333333333333336
-450.0   30.0   33.333333333333336
-500.0   30.0   16.666666666666668
-500.0   0.0   33.333333333333336
-450.0   30.0   33.333333333333336
-450.0   0.0   33.333333333333336
-450.0   0.0   16.666666666666668
-500.0   0.0   33.333333333333336
-450.0   30.0   33.333333333333336
-450.0   0.0   16.666666666666668
-500.0   30.0   16.666666666666668
-500.0   0.0   33.333333333333336
-450.0   0.0   33.333333333333336
-500.0   30.0   33.333333333333336
-500.0   0.0   50.0
-450.0   0.0   33.333333333333336
-450.0   30.0   33.333333333333336
-500.0   30.0   33.333333333333336
-450.0   30.0   50.0
-500.0   0.0   50.0
-500.0   30.0   50.0
-450.0   30.0   50.0
-500.0   30.0   33.333333333333336
-500.0   0.0   50.0
-450.0   30.0   50.0
-450.0   0.0   50.0
-450.0   0.0   33.333333333333336
-500.0   0.0   50.0
-450.0   30.0   50.0
-450.0   0.0   33.333333333333336
-500.0   30.0   33.333333333333336
-500.0   30.0   0.0
-450.0   30.0   0.0
-500.0   60.0   0.0
-500.0   30.0   16.666666666666668
-450.0   30.0   0.0
-450.0   60.0   0.0
-500.0   60.0   0.0
-450.0   60.0   16.666666666666668
-500.0   30.0   16.666666666666668
-500.0   60.0   16.666666666666668
-450.0   60.0   16.666666666666668
-500.0   60.0   0.0
-500.0   30.0   16.666666666666668
-450.0   60.0   16.666666666666668
-450.0   30.0   16.666666666666668
-450.0   30.0   0.0
-500.0   30.0   16.666666666666668
-450.0   60.0   16.666666666666668
-450.0   30.0   0.0
-500.0   60.0   0.0
-500.0   30.0   16.666666666666668
-450.0   30.0   16.666666666666668
-500.0   60.0   16.666666666666668
-500.0   30.0   33.333333333333336
-450.0   30.0   16.666666666666668
-450.0   60.0   16.666666666666668
-500.0   60.0   16.666666666666668
-450.0   60.0   33.333333333333336
-500.0   30.0   33.333333333333336
-500.0   60.0   33.333333333333336
-450.0   60.0   33.333333333333336
-500.0   60.0   16.666666666666668
-500.0   30.0   33.333333333333336
-450.0   60.0   33.333333333333336
-450.0   30.0   33.333333333333336
-450.0   30.0   16.666666666666668
-500.0   30.0   33.333333333333336
-450.0   60.0   33.333333333333336
-450.0   30.0   16.666666666666668
-500.0   60.0   16.666666666666668
-500.0   30.0   33.333333333333336
-450.0   30.0   33.333333333333336
-500.0   60.0   33.333333333333336
-500.0   30.0   50.0
-450.0   30.0   33.333333333333336
-450.0   60.0   33.333333333333336
-500.0   60.0   33.333333333333336
-450.0   60.0   50.0
-500.0   30.0   50.0
-500.0   60.0   50.0
-450.0   60.0   50.0
-500.0   60.0   33.333333333333336
-500.0   30.0   50.0
-450.0   60.0   50.0
-450.0   30.0   50.0
-450.0   30.0   33.333333333333336
-500.0   30.0   50.0
-450.0   60.0   50.0
-450.0   30.0   33.333333333333336
-500.0   60.0   33.333333333333336
-500.0   60.0   0.0
-450.0   60.0   0.0
-500.0   90.0   0.0
-500.0   60.0   16.666666666666668
-450.0   60.0   0.0
-450.0   90.0   0.0
-500.0   90.0   0.0
-450.0   90.0   16.666666666666668
-500.0   60.0   16.666666666666668
-500.0   90.0   16.666666666666668
-450.0   90.0   16.666666666666668
-500.0   90.0   0.0
-500.0   60.0   16.666666666666668
-450.0   90.0   16.666666666666668
-450.0   60.0   16.666666666666668
-450.0   60.0   0.0
-500.0   60.0   16.666666666666668
-450.0   90.0   16.666666666666668
-450.0   60.0   0.0
-500.0   90.0   0.0
-500.0   60.0   16.666666666666668
-450.0   60.0   16.666666666666668
-500.0   90.0   16.666666666666668
-500.0   60.0   33.333333333333336
-450.0   60.0   16.666666666666668
-450.0   90.0   16.666666666666668
-500.0   90.0   16.666666666666668
-450.0   90.0   33.333333333333336
-500.0   60.0   33.333333333333336
-500.0   90.0   33.333333333333336
-450.0   90.0   33.333333333333336
-500.0   90.0   16.666666666666668
-500.0   60.0   33.333333333333336
-450.0   90.0   33.333333333333336
-450.0   60.0   33.333333333333336
-450.0   60.0   16.666666666666668
-500.0   60.0   33.333333333333336
-450.0   90.0   33.333333333333336
-450.0   60.0   16.666666666666668
-500.0   90.0   16.666666666666668
-500.0   60.0   33.333333333333336
-450.0   60.0   33.333333333333336
-500.0   90.0   33.333333333333336
-500.0   60.0   50.0
-450.0   60.0   33.333333333333336
-450.0   90.0   33.333333333333336
-500.0   90.0   33.333333333333336
-450.0   90.0   50.0
-500.0   60.0   50.0
-500.0   90.0   50.0
-450.0   90.0   50.0
-500.0   90.0   33.333333333333336
-500.0   60.0   50.0
-450.0   90.0   50.0
-450.0   60.0   50.0
-450.0   60.0   33.333333333333336
-500.0   60.0   50.0
-450.0   90.0   50.0
-450.0   60.0   33.333333333333336
-500.0   90.0   33.333333333333336
-500.0   90.0   0.0
-450.0   90.0   0.0
-500.0   120.0   0.0
-500.0   90.0   16.666666666666668
-450.0   90.0   0.0
-450.0   120.0   0.0
-500.0   120.0   0.0
-450.0   120.0   16.666666666666668
-500.0   90.0   16.666666666666668
-500.0   120.0   16.666666666666668
-450.0   120.0   16.666666666666668
-500.0   120.0   0.0
-500.0   90.0   16.666666666666668
-450.0   120.0   16.666666666666668
-450.0   90.0   16.666666666666668
-450.0   90.0   0.0
-500.0   90.0   16.666666666666668
-450.0   120.0   16.666666666666668
-450.0   90.0   0.0
-500.0   120.0   0.0
-500.0   90.0   16.666666666666668
-450.0   90.0   16.666666666666668
-500.0   120.0   16.666666666666668
-500.0   90.0   33.333333333333336
-450.0   90.0   16.666666666666668
-450.0   120.0   16.666666666666668
-500.0   120.0   16.666666666666668
-450.0   120.0   33.333333333333336
-500.0   90.0   33.333333333333336
-500.0   120.0   33.333333333333336
-450.0   120.0   33.333333333333336
-500.0   120.0   16.666666666666668
-500.0   90.0   33.333333333333336
-450.0   120.0   33.333333333333336
-450.0   90.0   33.333333333333336
-450.0   90.0   16.666666666666668
-500.0   90.0   33.333333333333336
-450.0   120.0   33.333333333333336
-450.0   90.0   16.666666666666668
-500.0   120.0   16.666666666666668
-500.0   90.0   33.333333333333336
-450.0   90.0   33.333333333333336
-500.0   120.0   33.333333333333336
-500.0   90.0   50.0
-450.0   90.0   33.333333333333336
-450.0   120.0   33.333333333333336
-500.0   120.0   33.333333333333336
-450.0   120.0   50.0
-500.0   90.0   50.0
-500.0   120.0   50.0
-450.0   120.0   50.0
-500.0   120.0   33.333333333333336
-500.0   90.0   50.0
-450.0   120.0   50.0
-450.0   90.0   50.0
-450.0   90.0   33.333333333333336
-500.0   90.0   50.0
-450.0   120.0   50.0
-450.0   90.0   33.333333333333336
-500.0   120.0   33.333333333333336
-500.0   120.0   0.0
-450.0   120.0   0.0
-500.0   150.0   0.0
-500.0   120.0   16.666666666666668
-450.0   120.0   0.0
-450.0   150.0   0.0
-500.0   150.0   0.0
-450.0   150.0   16.666666666666668
-500.0   120.0   16.666666666666668
-500.0   150.0   16.666666666666668
-450.0   150.0   16.666666666666668
-500.0   150.0   0.0
-500.0   120.0   16.666666666666668
-450.0   150.0   16.666666666666668
-450.0   120.0   16.666666666666668
-450.0   120.0   0.0
-500.0   120.0   16.666666666666668
-450.0   150.0   16.666666666666668
-450.0   120.0   0.0
-500.0   150.0   0.0
-500.0   120.0   16.666666666666668
-450.0   120.0   16.666666666666668
-500.0   150.0   16.666666666666668
-500.0   120.0   33.333333333333336
-450.0   120.0   16.666666666666668
-450.0   150.0   16.666666666666668
-500.0   150.0   16.666666666666668
-450.0   150.0   33.333333333333336
-500.0   120.0   33.333333333333336
-500.0   150.0   33.333333333333336
-450.0   150.0   33.333333333333336
-500.0   150.0   16.666666666666668
-500.0   120.0   33.333333333333336
-450.0   150.0   33.333333333333336
-450.0   120.0   33.333333333333336
-450.0   120.0   16.666666666666668
-500.0   120.0   33.333333333333336
-450.0   150.0   33.333333333333336
-450.0   120.0   16.666666666666668
-500.0   150.0   16.666666666666668
-500.0   120.0   33.333333333333336
-450.0   120.0   33.333333333333336
-500.0   150.0   33.333333333333336
-500.0   120.0   50.0
-450.0   120.0   33.333333333333336
-450.0   150.0   33.333333333333336
-500.0   150.0   33.333333333333336
-450.0   150.0   50.0
-500.0   120.0   50.0
-500.0   150.0   50.0
-450.0   150.0   50.0
-500.0   150.0   33.333333333333336
-500.0   120.0   50.0
-450.0   150.0   50.0
-450.0   120.0   50.0
-450.0   120.0   33.333333333333336
-500.0   120.0   50.0
-450.0   150.0   50.0
-450.0   120.0   33.333333333333336
-500.0   150.0   33.333333333333336
-450.0   0.0   0.0
-400.0   0.0   0.0
-450.0   30.0   0.0
-450.0   0.0   16.666666666666668
-400.0   0.0   0.0
-400.0   30.0   0.0
-450.0   30.0   0.0
-400.0   30.0   16.666666666666668
-450.0   0.0   16.666666666666668
-450.0   30.0   16.666666666666668
-400.0   30.0   16.666666666666668
-450.0   30.0   0.0
-450.0   0.0   16.666666666666668
-400.0   30.0   16.666666666666668
-400.0   0.0   16.666666666666668
-400.0   0.0   0.0
-450.0   0.0   16.666666666666668
-400.0   30.0   16.666666666666668
-400.0   0.0   0.0
-450.0   30.0   0.0
-450.0   0.0   16.666666666666668
-400.0   0.0   16.666666666666668
-450.0   30.0   16.666666666666668
[...]
          <PointData>  
             <DataArray type="Float64" NumberOfComponents="3" Name="Strains" format="ascii">   
-3.804594846542265e-05   0.0   -2.5126140459846726e-05
-3.804594846542265e-05   0.0   -2.5126140459846726e-05
-3.804594846542265e-05   0.0   -2.5126140459846726e-05
-3.804594846542265e-05   0.0   -2.5126140459846726e-05
-2.419389159319347e-05   4.1939932969488415e-06   4.770169720378251e-07
-2.419389159319347e-05   4.1939932969488415e-06   4.770169720378251e-07
-2.419389159319347e-05   4.1939932969488415e-06   4.770169720378251e-07
-2.419389159319347e-05   4.1939932969488415e-06   4.770169720378251e-07
-2.370477280359978e-05   0.0   -2.3734733555815348e-05
-2.370477280359978e-05   0.0   -2.3734733555815348e-05
-2.370477280359978e-05   0.0   -2.3734733555815348e-05
-2.370477280359978e-05   0.0   -2.3734733555815348e-05
-3.9803725816603134e-05   5.0429144266388645e-06   7.110614320703687e-08
-3.9803725816603134e-05   5.0429144266388645e-06   7.110614320703687e-08
-3.9803725816603134e-05   5.0429144266388645e-06   7.110614320703687e-08
-3.9803725816603134e-05   5.0429144266388645e-06   7.110614320703687e-08
-3.0875360634511164e-05   1.1595057533594804e-06   -1.2479457289645285e-05
-3.0875360634511164e-05   1.1595057533594804e-06   -1.2479457289645285e-05
-3.0875360634511164e-05   1.1595057533594804e-06   -1.2479457289645285e-05
-3.0875360634511164e-05   1.1595057533594804e-06   -1.2479457289645285e-05
-3.98037258166032e-05   0.0   -2.676048221179867e-05
-3.98037258166032e-05   0.0   -2.676048221179867e-05
-3.98037258166032e-05   0.0   -2.676048221179867e-05
-3.98037258166032e-05   0.0   -2.676048221179867e-05
-2.370477280359978e-05   5.042914426638871e-06   3.096854799190353e-06
-2.370477280359978e-05   5.042914426638871e-06   3.096854799190353e-06
-2.370477280359978e-05   5.042914426638871e-06   3.096854799190353e-06
-2.370477280359978e-05   5.042914426638871e-06   3.096854799190353e-06
-2.3760117061588145e-05   0.0   -2.431257908917859e-05
-2.3760117061588145e-05   0.0   -2.431257908917859e-05
-2.3760117061588145e-05   0.0   -2.431257908917859e-05
-2.3760117061588145e-05   0.0   -2.431257908917859e-05
-4.103291281029405e-05   5.405421547778658e-06   1.2321608966641605e-06
-4.103291281029405e-05   5.405421547778658e-06   1.2321608966641605e-06
-4.103291281029405e-05   5.405421547778658e-06   1.2321608966641605e-06
-4.103291281029405e-05   5.405421547778658e-06   1.2321608966641605e-06
-3.178192143909562e-05   2.039919268850066e-06   -1.2166856687976047e-05
-3.178192143909562e-05   2.039919268850066e-06   -1.2166856687976047e-05
-3.178192143909562e-05   2.039919268850066e-06   -1.2166856687976047e-05
-3.178192143909562e-05   2.039919268850066e-06   -1.2166856687976047e-05
-4.1032912810294124e-05   0.0   -2.7555832017845794e-05
-4.1032912810294124e-05   0.0   -2.7555832017845794e-05
-4.1032912810294124e-05   0.0   -2.7555832017845794e-05
-4.1032912810294124e-05   0.0   -2.7555832017845794e-05
-2.3760117061588145e-05   5.405421547778672e-06   4.475413825331377e-06
-2.3760117061588145e-05   5.405421547778672e-06   4.475413825331377e-06
-2.3760117061588145e-05   5.405421547778672e-06   4.475413825331377e-06
-2.3760117061588145e-05   5.405421547778672e-06   4.475413825331377e-06
-2.373465617000495e-05   0.0   -2.4462876940899783e-05
-2.373465617000495e-05   0.0   -2.4462876940899783e-05
-2.373465617000495e-05   0.0   -2.4462876940899783e-05
-2.373465617000495e-05   0.0   -2.4462876940899783e-05
-4.36923400600631e-05   6.166310537511119e-06   5.100143220023909e-06
-4.36923400600631e-05   6.166310537511119e-06   5.100143220023909e-06
-4.36923400600631e-05   6.166310537511119e-06   5.100143220023909e-06
-4.36923400600631e-05   6.166310537511119e-06   5.100143220023909e-06
-3.238378449014948e-05   2.5774625641216725e-06   -1.159414061246511e-05
-3.238378449014948e-05   2.5774625641216725e-06   -1.159414061246511e-05
-3.238378449014948e-05   2.5774625641216725e-06   -1.159414061246511e-05
-3.238378449014948e-05   2.5774625641216725e-06   -1.159414061246511e-05
-2.419389159319351e-05   0.0   -2.2609744481677417e-05
-2.419389159319351e-05   0.0   -2.2609744481677417e-05
-2.419389159319351e-05   0.0   -2.2609744481677417e-05
-2.419389159319351e-05   0.0   -2.2609744481677417e-05
-1.103133652661681e-05   1.5341847438444248e-06   2.483581422570601e-07
-1.103133652661681e-05   1.5341847438444248e-06   2.483581422570601e-07
-1.103133652661681e-05   1.5341847438444248e-06   2.483581422570601e-07
-1.103133652661681e-05   1.5341847438444248e-06   2.483581422570601e-07
-1.0598567858864309e-05   0.0   -2.2420106294876135e-05
-1.0598567858864309e-05   0.0   -2.2420106294876135e-05
-1.0598567858864309e-05   0.0   -2.2420106294876135e-05
-1.0598567858864309e-05   0.0   -2.2420106294876135e-05
-2.370477280359978e-05   2.1910454348986818e-06   -1.8910586479228958e-06
-2.370477280359978e-05   2.1910454348986818e-06   -1.8910586479228958e-06
-2.370477280359978e-05   2.1910454348986818e-06   -1.8910586479228958e-06
-2.370477280359978e-05   2.1910454348986818e-06   -1.8910586479228958e-06
-1.739622972602888e-05   1.580318223344006e-07   -1.1185488943002414e-05
-1.739622972602888e-05   1.580318223344006e-07   -1.1185488943002414e-05
-1.739622972602888e-05   1.580318223344006e-07   -1.1185488943002414e-05
-1.739622972602888e-05   1.580318223344006e-07   -1.1185488943002414e-05
-2.370477280359976e-05   0.0   -2.3734733555815327e-05
-2.370477280359976e-05   0.0   -2.3734733555815327e-05
-2.370477280359976e-05   0.0   -2.3734733555815327e-05
-2.370477280359976e-05   0.0   -2.3734733555815327e-05
-1.0598567858864309e-05   2.1910454348986818e-06   -5.764313869836833e-07
-1.0598567858864309e-05   2.1910454348986818e-06   -5.764313869836833e-07
-1.0598567858864309e-05   2.1910454348986818e-06   -5.764313869836833e-07
-1.0598567858864309e-05   2.1910454348986818e-06   -5.764313869836833e-07
-1.0350807716189034e-05   0.0   -2.269915936769534e-05
-1.0350807716189034e-05   0.0   -2.269915936769534e-05
-1.0350807716189034e-05   0.0   -2.269915936769534e-05
-1.0350807716189034e-05   0.0   -2.269915936769534e-05
-2.3760117061588145e-05   2.689032869138747e-06   -1.9637301801800743e-06
-2.3760117061588145e-05   2.689032869138747e-06   -1.9637301801800743e-06
-2.3760117061588145e-05   2.689032869138747e-06   -1.9637301801800743e-06
-2.3760117061588145e-05   2.689032869138747e-06   -1.9637301801800743e-06
-1.7027790259894373e-05   8.629784901000038e-07   -1.2088642222246346e-05
-1.7027790259894373e-05   8.629784901000038e-07   -1.2088642222246346e-05
-1.7027790259894373e-05   8.629784901000038e-07   -1.2088642222246346e-05
-1.7027790259894373e-05   8.629784901000038e-07   -1.2088642222246346e-05
-2.3760117061588145e-05   0.0   -2.431257908917859e-05
-2.3760117061588145e-05   0.0   -2.431257908917859e-05
-2.3760117061588145e-05   0.0   -2.431257908917859e-05
-2.3760117061588145e-05   0.0   -2.431257908917859e-05
-1.0350807716189034e-05   2.689032869138747e-06   -3.5031045869682466e-07
-1.0350807716189034e-05   2.689032869138747e-06   -3.5031045869682466e-07
-1.0350807716189034e-05   2.689032869138747e-06   -3.5031045869682466e-07
-1.0350807716189034e-05   2.689032869138747e-06   -3.5031045869682466e-07
-1.012330174257028e-05   0.0   -2.2583837067843023e-05
-1.012330174257028e-05   0.0   -2.2583837067843023e-05
-1.012330174257028e-05   0.0   -2.2583837067843023e-05
-1.012330174257028e-05   0.0   -2.2583837067843023e-05
-2.3734656170004887e-05   3.1317331217612296e-06   -1.7772862285086614e-06
-2.3734656170004887e-05   3.1317331217612296e-06   -1.7772862285086614e-06
-2.3734656170004887e-05   3.1317331217612296e-06   -1.7772862285086614e-06
-2.3734656170004887e-05   3.1317331217612296e-06   -1.7772862285086614e-06
-1.6941709402079207e-05   1.4406183511129582e-06   -1.2084195312662585e-05
-1.6941709402079207e-05   1.4406183511129582e-06   -1.2084195312662585e-05
-1.6941709402079207e-05   1.4406183511129582e-06   -1.2084195312662585e-05
-1.6941709402079207e-05   1.4406183511129582e-06   -1.2084195312662585e-05
-1.1031336526616828e-05   0.0   -2.168923363537076e-05
-1.1031336526616828e-05   0.0   -2.168923363537076e-05
-1.1031336526616828e-05   0.0   -2.168923363537076e-05
-1.1031336526616828e-05   0.0   -2.168923363537076e-05
1.3949707477912241e-06   -1.9956753938009825e-07   -1.0984620349853783e-06
1.3949707477912241e-06   -1.9956753938009825e-07   -1.0984620349853783e-06
1.3949707477912241e-06   -1.9956753938009825e-07   -1.0984620349853783e-06
1.3949707477912241e-06   -1.9956753938009825e-07   -1.0984620349853783e-06
1.6765405963479281e-06   0.0   -2.218624733319293e-05
1.6765405963479281e-06   0.0   -2.218624733319293e-05
1.6765405963479281e-06   0.0   -2.218624733319293e-05
1.6765405963479281e-06   0.0   -2.218624733319293e-05
-1.0598567858864309e-05   3.897649361385525e-07   -1.961592202855734e-06
-1.0598567858864309e-05   3.897649361385525e-07   -1.961592202855734e-06
-1.0598567858864309e-05   3.897649361385525e-07   -1.961592202855734e-06
-1.0598567858864309e-05   3.897649361385525e-07   -1.961592202855734e-06
-4.677397965134439e-06   -4.1417808151853556e-07   -1.1347842881811219e-05
-4.677397965134439e-06   -4.1417808151853556e-07   -1.1347842881811219e-05
-4.677397965134439e-06   -4.1417808151853556e-07   -1.1347842881811219e-05
-4.677397965134439e-06   -4.1417808151853556e-07   -1.1347842881811219e-05
-1.0598567858864309e-05   0.0   -2.2420106294876135e-05
-1.0598567858864309e-05   0.0   -2.2420106294876135e-05
-1.0598567858864309e-05   0.0   -2.2420106294876135e-05
-1.0598567858864309e-05   0.0   -2.2420106294876135e-05
1.6765405963479311e-06   3.897649361385525e-07   -1.7277332411725997e-06
1.6765405963479311e-06   3.897649361385525e-07   -1.7277332411725997e-06
1.6765405963479311e-06   3.897649361385525e-07   -1.7277332411725997e-06
1.6765405963479311e-06   3.897649361385525e-07   -1.7277332411725997e-06
1.9002943516375528e-06   0.0   -2.2153622868980893e-05
1.9002943516375528e-06   0.0   -2.2153622868980893e-05
1.9002943516375528e-06   0.0   -2.2153622868980893e-05
1.9002943516375528e-06   0.0   -2.2153622868980893e-05
-1.0350807716189015e-05   9.092274978573386e-07   -2.280655921317686e-06
-1.0350807716189015e-05   9.092274978573386e-07   -2.280655921317686e-06
-1.0350807716189015e-05   9.092274978573386e-07   -2.280655921317686e-06
-1.0350807716189015e-05   9.092274978573386e-07   -2.280655921317686e-06
-4.349136753613377e-06   2.2206952157933563e-07   -1.1871146073176973e-05
-4.349136753613377e-06   2.2206952157933563e-07   -1.1871146073176973e-05
-4.349136753613377e-06   2.2206952157933563e-07   -1.1871146073176973e-05
-4.349136753613377e-06   2.2206952157933563e-07   -1.1871146073176973e-05
-1.0350807716189034e-05   0.0   -2.269915936769534e-05
-1.0350807716189034e-05   0.0   -2.269915936769534e-05
-1.0350807716189034e-05   0.0   -2.269915936769534e-05
-1.0350807716189034e-05   0.0   -2.269915936769534e-05
1.9002943516375562e-06   9.092274978573454e-07   -1.7351194226032878e-06
1.9002943516375562e-06   9.092274978573454e-07   -1.7351194226032878e-06
1.9002943516375562e-06   9.092274978573454e-07   -1.7351194226032878e-06
1.9002943516375562e-06   9.092274978573454e-07   -1.7351194226032878e-06
2.1975361480572514e-06   0.0   -2.16777090600486e-05
2.1975361480572514e-06   0.0   -2.16777090600486e-05
2.1975361480572514e-06   0.0   -2.16777090600486e-05
2.1975361480572514e-06   0.0   -2.16777090600486e-05
-1.0123301742570269e-05   1.5102133463240031e-06   -2.0491072501304687e-06
-1.0123301742570269e-05   1.5102133463240031e-06   -2.0491072501304687e-06
-1.0123301742570269e-05   1.5102133463240031e-06   -2.0491072501304687e-06
-1.0123301742570269e-05   1.5102133463240031e-06   -2.0491072501304687e-06
-4.076635784065882e-06   8.512085897055828e-07   -1.173148099366672e-05
-4.076635784065882e-06   8.512085897055828e-07   -1.173148099366672e-05
-4.076635784065882e-06   8.512085897055828e-07   -1.173148099366672e-05
-4.076635784065882e-06   8.512085897055828e-07   -1.173148099366672e-05
1.3949707477912267e-06   0.0   -2.180897415899882e-05
1.3949707477912267e-06   0.0   -2.180897415899882e-05
1.3949707477912267e-06   0.0   -2.180897415899882e-05
1.3949707477912267e-06   0.0   -2.180897415899882e-05
1.4893329481920826e-05   -1.7468960589475343e-06   -3.5984723748465835e-07
1.4893329481920826e-05   -1.7468960589475343e-06   -3.5984723748465835e-07
1.4893329481920826e-05   -1.7468960589475343e-06   -3.5984723748465835e-07
1.4893329481920826e-05   -1.7468960589475343e-06   -3.5984723748465835e-07
1.493404020612299e-05   0.0   -2.297445824724845e-05
1.493404020612299e-05   0.0   -2.297445824724845e-05
1.493404020612299e-05   0.0   -2.297445824724845e-05
1.493404020612299e-05   0.0   -2.297445824724845e-05
1.676540596347934e-06   -1.313684856759071e-06   -9.04146502345824e-08
1.676540596347934e-06   -1.313684856759071e-06   -9.04146502345824e-08
1.676540596347934e-06   -1.313684856759071e-06   -9.04146502345824e-08
1.676540596347934e-06   -1.313684856759071e-06   -9.04146502345824e-08
8.164505476957109e-06   -9.712367402080253e-07   -1.1109158321180493e-05
8.164505476957109e-06   -9.712367402080253e-07   -1.1109158321180493e-05
8.164505476957109e-06   -9.712367402080253e-07   -1.1109158321180493e-05
8.164505476957109e-06   -9.712367402080253e-07   -1.1109158321180493e-05
1.676540596347934e-06   0.0   -2.2186247333193007e-05
1.676540596347934e-06   0.0   -2.2186247333193007e-05
1.676540596347934e-06   0.0   -2.2186247333193007e-05
1.676540596347934e-06   0.0   -2.2186247333193007e-05
1.493404020612299e-05   -1.313684856759071e-06   -8.786255642900261e-07
1.493404020612299e-05   -1.313684856759071e-06   -8.786255642900261e-07
1.493404020612299e-05   -1.313684856759071e-06   -8.786255642900261e-07
1.493404020612299e-05   -1.313684856759071e-06   -8.786255642900261e-07
1.4882341193301704e-05   0.0   -2.264649358834917e-05
1.4882341193301704e-05   0.0   -2.264649358834917e-05
1.4882341193301704e-05   0.0   -2.264649358834917e-05
1.4882341193301704e-05   0.0   -2.264649358834917e-05
1.9002943516375562e-06   -8.214511989470649e-07   -5.168781328740219e-07
1.9002943516375562e-06   -8.214511989470649e-07   -5.168781328740219e-07
1.9002943516375562e-06   -8.214511989470649e-07   -5.168781328740219e-07
1.9002943516375562e-06   -8.214511989470649e-07   -5.168781328740219e-07
8.27944089482482e-06   -3.8353854596347644e-07   -1.1411536629976273e-05
8.27944089482482e-06   -3.8353854596347644e-07   -1.1411536629976273e-05
8.27944089482482e-06   -3.8353854596347644e-07   -1.1411536629976273e-05
8.27944089482482e-06   -3.8353854596347644e-07   -1.1411536629976273e-05
1.9002943516375545e-06   0.0   -2.2153622868980914e-05
1.9002943516375545e-06   0.0   -2.2153622868980914e-05
1.9002943516375545e-06   0.0   -2.2153622868980914e-05
1.9002943516375545e-06   0.0   -2.2153622868980914e-05
1.4882341193301704e-05   -8.214511989470649e-07   -1.0097488522422637e-06
1.4882341193301704e-05   -8.214511989470649e-07   -1.0097488522422637e-06
1.4882341193301704e-05   -8.214511989470649e-07   -1.0097488522422637e-06
1.4882341193301704e-05   -8.214511989470649e-07   -1.0097488522422637e-06
1.5182348856750456e-05   0.0   -2.1774156812795203e-05
1.5182348856750456e-05   0.0   -2.1774156812795203e-05
1.5182348856750456e-05   0.0   -2.1774156812795203e-05
1.5182348856750456e-05   0.0   -2.1774156812795203e-05
2.197536148057255e-06   -1.6074625457760815e-07   -3.635454555997216e-08
2.197536148057255e-06   -1.6074625457760815e-07   -3.635454555997216e-08
2.197536148057255e-06   -1.6074625457760815e-07   -3.635454555997216e-08
2.197536148057255e-06   -1.6074625457760815e-07   -3.635454555997216e-08
8.541321604194e-06   3.1622171348810605e-07   -1.0895511086627302e-05
8.541321604194e-06   3.1622171348810605e-07   -1.0895511086627302e-05
8.541321604194e-06   3.1622171348810605e-07   -1.0895511086627302e-05
8.541321604194e-06   3.1622171348810605e-07   -1.0895511086627302e-05
1.4893329481920826e-05   0.0   -2.285711179436734e-05
1.4893329481920826e-05   0.0   -2.285711179436734e-05
1.4893329481920826e-05   0.0   -2.285711179436734e-05
1.4893329481920826e-05   0.0   -2.285711179436734e-05
3.369904635580671e-05   -4.437945085597169e-06   5.822982610751019e-06
3.369904635580671e-05   -4.437945085597169e-06   5.822982610751019e-06
3.369904635580671e-05   -4.437945085597169e-06   5.822982610751019e-06
3.369904635580671e-05   -4.437945085597169e-06   5.822982610751019e-06
3.1667323812465015e-05   0.0   -2.523554041305325e-05
3.1667323812465015e-05   0.0   -2.523554041305325e-05
3.1667323812465015e-05   0.0   -2.523554041305325e-05
3.1667323812465015e-05   0.0   -2.523554041305325e-05
1.493404020612299e-05   -3.7684702763413354e-06   4.914347763321582e-06
1.493404020612299e-05   -3.7684702763413354e-06   4.914347763321582e-06
1.493404020612299e-05   -3.7684702763413354e-06   4.914347763321582e-06
1.493404020612299e-05   -3.7684702763413354e-06   4.914347763321582e-06
2.328032664719292e-05   -1.982023848904926e-06   -1.0067997494923461e-05
2.328032664719292e-05   -1.982023848904926e-06   -1.0067997494923461e-05
2.328032664719292e-05   -1.982023848904926e-06   -1.0067997494923461e-05
2.328032664719292e-05   -1.982023848904926e-06   -1.0067997494923461e-05
1.4934040206122977e-05   0.0   -2.297445824724843e-05
1.4934040206122977e-05   0.0   -2.297445824724843e-05
1.4934040206122977e-05   0.0   -2.297445824724843e-05
1.4934040206122977e-05   0.0   -2.297445824724843e-05
3.1667323812464906e-05   -3.768470276341322e-06   2.653265597516775e-06
3.1667323812464906e-05   -3.768470276341322e-06   2.653265597516775e-06
3.1667323812464906e-05   -3.768470276341322e-06   2.653265597516775e-06
3.1667323812464906e-05   -3.768470276341322e-06   2.653265597516775e-06
3.073595362254952e-05   0.0   -2.4711014126057804e-05
3.073595362254952e-05   0.0   -2.4711014126057804e-05
3.073595362254952e-05   0.0   -2.4711014126057804e-05
3.073595362254952e-05   0.0   -2.4711014126057804e-05
1.4882341193301704e-05   -3.440867562847721e-06   3.7761937937305127e-06
1.4882341193301704e-05   -3.440867562847721e-06   3.7761937937305127e-06
1.4882341193301704e-05   -3.440867562847721e-06   3.7761937937305127e-06
1.4882341193301704e-05   -3.440867562847721e-06   3.7761937937305127e-06
2.2834996914336244e-05   -1.447129899007798e-06   -1.0674475006297669e-05
2.2834996914336244e-05   -1.447129899007798e-06   -1.0674475006297669e-05
2.2834996914336244e-05   -1.447129899007798e-06   -1.0674475006297669e-05
2.2834996914336244e-05   -1.447129899007798e-06   -1.0674475006297669e-05
1.4882341193301704e-05   0.0   -2.264649358834917e-05
1.4882341193301704e-05   0.0   -2.264649358834917e-05
1.4882341193301704e-05   0.0   -2.264649358834917e-05
1.4882341193301704e-05   0.0   -2.264649358834917e-05
3.073595362254941e-05   -3.4408675628477074e-06   1.7116732560218666e-06
3.073595362254941e-05   -3.4408675628477074e-06   1.7116732560218666e-06
3.073595362254941e-05   -3.4408675628477074e-06   1.7116732560218666e-06
3.073595362254941e-05   -3.4408675628477074e-06   1.7116732560218666e-06
2.934083541868139e-05   0.0   -2.33734521971864e-05
2.934083541868139e-05   0.0   -2.33734521971864e-05
2.934083541868139e-05   0.0   -2.33734521971864e-05
2.934083541868139e-05   0.0   -2.33734521971864e-05
1.5182348856750456e-05   -2.6654923073187337e-06   1.8233207904230974e-06
1.5182348856750456e-05   -2.6654923073187337e-06   1.8233207904230974e-06
1.5182348856750456e-05   -2.6654923073187337e-06   1.8233207904230974e-06
1.5182348856750456e-05   -2.6654923073187337e-06   1.8233207904230974e-06
2.2111588305991574e-05   -6.05798840697725e-07   -1.0961227704951351e-05
2.2111588305991574e-05   -6.05798840697725e-07   -1.0961227704951351e-05
2.2111588305991574e-05   -6.05798840697725e-07   -1.0961227704951351e-05
2.2111588305991574e-05   -6.05798840697725e-07   -1.0961227704951351e-05
-3.2894396921760515e-05   4.1939932969488415e-06   -2.168706439975276e-05
-3.2894396921760515e-05   4.1939932969488415e-06   -2.168706439975276e-05