<?xml version="1.0"?> 
<VTKFile type="UnstructuredGrid"> 
   <UnstructuredGrid> 
      <Piece NumberOfPoints="6000"  NumberOfCells="1500">  
          <Points>  
             <DataArray type="Float64" NumberOfComponents="3" format="ascii">   
-500.0   0.0   0.0
-450.0   0.0   0.0
-500.0   30.0   0.0
-500.0   0.0   16.666666666666668
-450.0   0.0   0.0
-450.0   30.0   0.0
-500.0   30.0   0.0
-450.0   30.0   16.666666666666668
-500.0   0.0   16.666666666666668
-500.0   30.0   16.666666666666668
-450.0   30.0   16.666666666666668
-500.0   30.0   0.0
-500.0   0.0   16.666666666666668
-450.0   30.0   16.666666666666668
-450.0   0.0   16.666666666666668
-450.0   0.0   0.0
-500.0   0.0   16.666666666666668
-450.0   30.0   16.666666666666668
-450.0   0.0   0.0
-500.0   30.0   0.0
-500.0   0.0   16.666666666666668
-450.0   0.0   16.666666666666668
-500.0   30.0   16.666666666666668
-500.0   0.0   33.333333333333336
-450.0   0.0   16.666666666666668
-450.0   30.0   16.666666666666668
-500.0   30.0   16.666666666666668
-450.0   30.0   33.333333333333336
-500.0   0.0   33.333333333333336
-500.0   30.0   33.333333333333336
-450.0   30.0   33.333333333333336
-500.0   30.0   16.666666666666668
-500.0   0.0   33.333333333333336
-450.0   30.0   33.333333333333336
-450.0   0.0   33.333333333333336
-450.0   0.0   16.666666666666668
-500.0   0.0   33.333333333333336
-450.0   30.0   33.333333333333336
-450.0   0.0   16.666666666666668
-500.0   30.0   16.666666666666668
-500.0   0.0   33.333333333333336
-450.0   0.0   33.333333333333336
-500.0   30.0   33.333333333333336
-500.0   0.0   50.0
-450.0   0.0   33.333333333333336
-450.0   30.0   33.333333333333336
-500.0   30.0   33.333333333333336
-450.0   30.0   50.0
-500.0   0.0   50.0
-500.0   30.0   50.0
-450.0   30.0   50.0
-500.0   30.0   33.333333333333336
-500.0   0.0   50.0
-450.0   30.0   50.0
-450.0   0.0   50.0
-450.0   0.0   33.333333333333336
-500.0   0.0   50.0
-450.0   30.0   50.0
-450.0   0.0   33.333333333333336
-500.0   30.0   33.333333333333336
-500.0   30.0   0.0
-450.0   30.0   0.0
-500.0   60.0   0.0
-500.0   30.0   16.666666666666668
-450.0   30.0   0.0
-450.0   60.0   0.0
-500.0   60.0   0.0
-450.0   60.0   16.666666666666668
-500.0   30.0   16.666666666666668
-500.0   60.0   16.666666666666668
-450.0   60.0   16.666666666666668
-500.0   60.0   0.0
-500.0   30.0   16.666666666666668
-450.0   60.0   16.666666666666668
-450.0   30.0   16.666666666666668
-450.0   30.0   0.0
-500.0   30.0   16.666666666666668
-450.0   60.0   16.666666666666668
-450.0   30.0   0.0
-500.0   60.0   0.0
-500.0   30.0   16.666666666666668
-450.0   30.0   16.666666666666668
-500.0   60.0   16.666666666666668
-500.0   30.0   33.333333333333336
-450.0   30.0   16.666666666666668
-450.0   60.0   16.666666666666668
-500.0   60.0   16.666666666666668
-450.0   60.0   33.333333333333336
-500.0   30.0   33.333333333333336
-500.0   60.0   33.333333333333336
-450.0   60.0   33.333333333333336
-500.0   60.0   16.666666666666668
-500.0   30.0   33.333333333333336
-450.0   60.0   33.333333333333336
-450.0   30.0   33.333333333333336
-450.0   30.0   16.666666666666668
-500.0   30.0   33.333333333333336
-450.0   60.0   33.333333333333336
-450.0   30.0   16.666666666666668
-500.0   60.0   16.666666666666668
-500.0   30.0   33.333333333333336
-450.0   30.0   33.333333333333336
-500.0   60.0   33.333333333333336
-500.0   30.0   50.0
-450.0   30.0   33.333333333333336
-450.0   60.0   33.333333333333336
-500.0   60.0   33.333333333333336
-450.0   60.0   50.0
-500.0   30.0   50.0
-500.0   60.0   50.0
-450.0   60.0   50.0
-500.0   60.0   33.333333333333336
-500.0   30.0   50.0
-450.0   60.0   50.0
-450.0   30.0   50.0
-450.0   30.0   33.333333333333336
-500.0   30.0   50.0
-450.0   60.0   50.0
-450.0   30.0   33.333333333333336
-500.0   60.0   33.333333333333336
-500.0   60.0   0.0
-450.0   60.0   0.0
-500.0   90.0   0.0
-500.0   60.0   16.666666666666668
-450.0   60.0   0.0
-450.0   90.0   0.0
-500.0   90.0   0.0
-450.0   90.0   16.666666666666668
-500.0   60.0   16.666666666666668
-500.0   90.0   16.666666666666668
-450.0   90.0   16.666666666666668
-500.0   90.0   0.0
-500.0   60.0   16.666666666666668
-450.0   90.0   16.666666666666668
-450.0   60.0   16.666666666666668
-450.0   60.0   0.0
-500.0   60.0   16.666666666666668
-450.0   90.0   16.666666666666668
-450.0   60.0   0.0
-500.0   90.0   0.0
-500.0   60.0   16.666666666666668
-450.0   60.0   16.666666666666668
-500.0   90.0   16.666666666666668
-500.0   60.0   33.333333333333336
-450.0   60.0   16.666666666666668
-450.0   90.0   16.666666666666668
-500.0   90.0   16.666666666666668
-450.0   90.0   33.333333333333336
-500.0   60.0   33.333333333333336
-500.0   90.0   33.333333333333336
-450.0   90.0   33.333333333333336
-500.0   90.0   16.666666666666668
-500.0   60.0   33.333333333333336
-450.0   90.0   33.333333333333336
-450.0   60.0   33.333333333333336
-450.0   60.0   16.666666666666668
-500.0   60.0   33.333333333333336
-450.0   90.0   33.333333333333336
-450.0   60.0   16.666666666666668
-500.0   90.0   16.666666666666668
-500.0   60.0   33.333333333333336
-450.0   60.0   33.333333333333336
-500.0   90.0   33.333333333333336
-500.0   60.0   50.0
-450.0   60.0   33.333333333333336
-450.0   90.0   33.333333333333336
-500.0   90.0   33.333333333333336
-450.0   90.0   50.0
-500.0   60.0   50.0
-500.0   90.0   50.0
-450.0   90.0   50.0
-500.0   90.0   33.333333333333336
-500.0   60.0   50.0
-450.0   90.0   50.0
-450.0   60.0   50.0
-450.0   60.0   33.333333333333336
-500.0   60.0   50.0
-450.0   90.0   50.0
-450.0   60.0   33.333333333333336
-500.0   90.0   33.333333333333336
-500.0   90.0   0.0
-450.0   90.0   0.0
-500.0   120.0   0.0
-500.0   90.0   16.666666666666668
-450.0   90.0   0.0
-450.0   120.0   0.0
-500.0   120.0   0.0
-450.0   120.0   16.666666666666668
-500.0   90.0   16.666666666666668
-500.0   120.0   16.666666666666668
-450.0   120.0   16.666666666666668
-500.0   120.0   0.0
-500.0   90.0   16.666666666666668
-450.0   120.0   16.666666666666668
-450.0   90.0   16.666666666666668
-450.0   90.0   0.0
-500.0   90.0   16.666666666666668
-450.0   120.0   16.666666666666668
-450.0   90.0   0.0
-500.0   120.0   0.0
-500.0   90.0   16.666666666666668
-450.0   90.0   16.666666666666668
-500.0   120.0   16.666666666666668
-500.0   90.0   33.333333333333336
-450.0   90.0   16.666666666666668
-450.0   120.0   16.666666666666668
-500.0   120.0   16.666666666666668
-450.0   120.0   33.333333333333336
-500.0   90.0   33.333333333333336
-500.0   120.0   33.333333333333336
-450.0   120.0   33.333333333333336
-500.0   120.0   16.666666666666668
-500.0   90.0   33.333333333333336
-450.0   120.0   33.333333333333336
-450.0   90.0   33.333333333333336
-450.0   90.0   16.666666666666668
-500.0   90.0   33.333333333333336
-450.0   120.0   33.333333333333336
-450.0   90.0   16.666666666666668
-500.0   120.0   16.666666666666668
-500.0   90.0   33.333333333333336
-450.0   90.0   33.333333333333336
-500.0   120.0   33.333333333333336
-500.0   90.0   50.0
-450.0   90.0   33.333333333333336
-450.0   120.0   33.333333333333336
-500.0   120.0   33.333333333333336
-450.0   120.0   50.0
-500.0   90.0   50.0
-500.0   120.0   50.0
-450.0   120.0   50.0
-500.0   120.0   33.333333333333336
-500.0   90.0   50.0
-450.0   120.0   50.0
-450.0   90.0   50.0
-450.0   90.0   33.333333333333336
-500.0   90.0   50.0
-450.0   120.0   50.0
-450.0   90.0   33.333333333333336
-500.0   120.0   33.333333333333336
-500.0   120.0   0.0
-450.0   120.0   0.0
-500.0   150.0   0.0
-500.0   120.0   16.666666666666668
-450.0   120.0   0.0
-450.0   150.0   0.0
-500.0   150.0   0.0
-450.0   150.0   16.666666666666668
-500.0   120.0   16.666666666666668
-500.0   150.0   16.666666666666668
-450.0   150.0   16.666666666666668
-500.0   150.0   0.0
-500.0   120.0   16.666666666666668
-450.0   150.0   16.666666666666668
-450.0   120.0   16.666666666666668
-450.0   120.0   0.0
-500.0   120.0   16.666666666666668
-450.0   150.0   16.666666666666668
-450.0   120.0   0.0
-500.0   150.0   0.0
-500.0   120.0   16.666666666666668
-450.0   120.0   16.666666666666668
-500.0   150.0   16.666666666666668
-500.0   120.0   33.333333333333336
-450.0   120.0   16.666666666666668
-450.0   150.0   16.666666666666668
-500.0   150.0   16.666666666666668
-450.0   150.0   33.333333333333336
-500.0   120.0   33.333333333333336
-500.0   150.0   33.333333333333336
-450.0   150.0   33.333333333333336
-500.0   150.0   16.666666666666668
-500.0   120.0   33.333333333333336
-450.0   150.0   33.333333333333336
-450.0   120.0   33.333333333333336
-450.0   120.0   16.666666666666668
-500.0   120.0   33.333333333333336
-450.0   150.0   33.333333333333336
-450.0   120.0   16.666666666666668
-500.0   150.0   16.666666666666668
-500.0   120.0   33.333333333333336
-450.0   120.0   33.333333333333336
-500.0   150.0   33.333333333333336
-500.0   120.0   50.0
-450.0   120.0   33.333333333333336
-450.0   150.0   33.333333333333336
-500.0   150.0   33.333333333333336
-450.0   150.0   50.0
-500.0   120.0   50.0
-500.0   150.0   50.0
-450.0   150.0   50.0
-500.0   150.0   33.333333333333336
-500.0   120.0   50.0
-450.0   150.0   50.0
-450.0   120.0   50.0
-450.0   120.0   33.333333333333336
-500.0   120.0   50.0
-450.0   150.0   50.0
-450.0   120.0   33.333333333333336
-500.0   150.0   33.333333333333336
-450.0   0.0   0.0
-400.0   0.0   0.0
-450.0   30.0   0.0
-450.0   0.0   16.666666666666668
-400.0   0.0   0.0
-400.0   30.0   0.0
-450.0   30.0   0.0
-400.0   30.0   16.666666666666668
-450.0   0.0   16.666666666666668
-450.0   30.0   16.666666666666668
-400.0   30.0   16.666666666666668
-450.0   30.0   0.0
-450.0   0.0   16.666666666666668
-400.0   30.0   16.666666666666668
-400.0   0.0   16.666666666666668
-400.0   0.0   0.0
-450.0   0.0   16.666666666666668
-400.0   30.0   16.666666666666668
-400.0   0.0   0.0
-450.0   30.0   0.0
-450.0   0.0   16.666666666666668
-400.0   0.0   16.666666666666668
-450.0   30.0   16.666666666666668
[...]
          <PointData>  
             <DataArray type="Float64" NumberOfComponents="3" Name="Strains" format="ascii">   
-7.559751794597535e-05   0.0   -4.966725020005182e-05
-7.559751794597535e-05   0.0   -4.966725020005182e-05
-7.559751794597535e-05   0.0   -4.966725020005182e-05
-7.559751794597535e-05   0.0   -4.966725020005182e-05
-4.809897554787351e-05   8.36779369523506e-06   1.1843300139255099e-06
-4.809897554787351e-05   8.36779369523506e-06   1.1843300139255099e-06
-4.809897554787351e-05   8.36779369523506e-06   1.1843300139255099e-06
-4.809897554787351e-05   8.36779369523506e-06   1.1843300139255099e-06
-4.7144280926733286e-05   0.0   -4.6882995711810484e-05
-4.7144280926733286e-05   0.0   -4.6882995711810484e-05
-4.7144280926733286e-05   0.0   -4.6882995711810484e-05
-4.7144280926733286e-05   0.0   -4.6882995711810484e-05
-7.911211086391963e-05   1.0045100136218019e-05   3.696607684361788e-07
-7.911211086391963e-05   1.0045100136218019e-05   3.696607684361788e-07
-7.911211086391963e-05   1.0045100136218019e-05   3.696607684361788e-07
-7.911211086391963e-05   1.0045100136218019e-05   3.696607684361788e-07
-6.137089943635422e-05   2.320212073534452e-06   -2.456409210656271e-05
-6.137089943635422e-05   2.320212073534452e-06   -2.456409210656271e-05
-6.137089943635422e-05   2.320212073534452e-06   -2.456409210656271e-05
-6.137089943635422e-05   2.320212073534452e-06   -2.456409210656271e-05
-7.911211086391977e-05   0.0   -5.291005579354131e-05
-7.911211086391977e-05   0.0   -5.291005579354131e-05
-7.911211086391977e-05   0.0   -5.291005579354131e-05
-7.911211086391977e-05   0.0   -5.291005579354131e-05
-4.7144280926733286e-05   1.0045100136218046e-05   6.396720850167004e-06
-4.7144280926733286e-05   1.0045100136218046e-05   6.396720850167004e-06
-4.7144280926733286e-05   1.0045100136218046e-05   6.396720850167004e-06
-4.7144280926733286e-05   1.0045100136218046e-05   6.396720850167004e-06
-4.7273502812163304e-05   0.0   -4.8029521847659646e-05
-4.7273502812163304e-05   0.0   -4.8029521847659646e-05
-4.7273502812163304e-05   0.0   -4.8029521847659646e-05
-4.7273502812163304e-05   0.0   -4.8029521847659646e-05
-8.15786611359833e-05   1.07627151386099e-05   2.688112942207953e-06
-8.15786611359833e-05   1.07627151386099e-05   2.688112942207953e-06
-8.15786611359833e-05   1.07627151386099e-05   2.688112942207953e-06
-8.15786611359833e-05   1.07627151386099e-05   2.688112942207953e-06
-6.319280683804142e-05   4.0671116215680475e-06   -2.393761544413669e-05
-6.319280683804142e-05   4.0671116215680475e-06   -2.393761544413669e-05
-6.319280683804142e-05   4.0671116215680475e-06   -2.393761544413669e-05
-6.319280683804142e-05   4.0671116215680475e-06   -2.393761544413669e-05
-8.157866113598345e-05   0.0   -5.4487150930825606e-05
-8.157866113598345e-05   0.0   -5.4487150930825606e-05
-8.157866113598345e-05   0.0   -5.4487150930825606e-05
-8.157866113598345e-05   0.0   -5.4487150930825606e-05
-4.7273502812163304e-05   1.0762715138609927e-05   9.145742025373934e-06
-4.7273502812163304e-05   1.0762715138609927e-05   9.145742025373934e-06
-4.7273502812163304e-05   1.0762715138609927e-05   9.145742025373934e-06
-4.7273502812163304e-05   1.0762715138609927e-05   9.145742025373934e-06
-4.724444631024792e-05   0.0   -4.832472204489223e-05
-4.724444631024792e-05   0.0   -4.832472204489223e-05
-4.724444631024792e-05   0.0   -4.832472204489223e-05
-4.724444631024792e-05   0.0   -4.832472204489223e-05
-8.6895994859924e-05   1.2263762306799866e-05   1.040293482048823e-05
-8.6895994859924e-05   1.2263762306799866e-05   1.040293482048823e-05
-8.6895994859924e-05   1.2263762306799866e-05   1.040293482048823e-05
-8.6895994859924e-05   1.2263762306799866e-05   1.040293482048823e-05
-6.441155372311557e-05   5.135357404944471e-06   -2.2794090799745922e-05
-6.441155372311557e-05   5.135357404944471e-06   -2.2794090799745922e-05
-6.441155372311557e-05   5.135357404944471e-06   -2.2794090799745922e-05
-6.441155372311557e-05   5.135357404944471e-06   -2.2794090799745922e-05
-4.809897554787359e-05   0.0   -4.464657398291079e-05
-4.809897554787359e-05   0.0   -4.464657398291079e-05
-4.809897554787359e-05   0.0   -4.464657398291079e-05
-4.809897554787359e-05   0.0   -4.464657398291079e-05
-2.1908850886842482e-05   3.0676345000518404e-06   8.44214485505468e-07
-2.1908850886842482e-05   3.0676345000518404e-06   8.44214485505468e-07
-2.1908850886842482e-05   3.0676345000518404e-06   8.44214485505468e-07
-2.1908850886842482e-05   3.0676345000518404e-06   8.44214485505468e-07
-2.10679841871903e-05   0.0   -4.426120294235353e-05
-2.10679841871903e-05   0.0   -4.426120294235353e-05
-2.10679841871903e-05   0.0   -4.426120294235353e-05
-2.10679841871903e-05   0.0   -4.426120294235353e-05
-4.7144280926733286e-05   4.369654615761593e-06   -3.4225011459055173e-06
-4.7144280926733286e-05   4.369654615761593e-06   -3.4225011459055173e-06
-4.7144280926733286e-05   4.369654615761593e-06   -3.4225011459055173e-06
-4.7144280926733286e-05   4.369654615761593e-06   -3.4225011459055173e-06
-3.4583479867531884e-05   3.211425337977113e-07   -2.192806232872936e-05
-3.4583479867531884e-05   3.211425337977113e-07   -2.192806232872936e-05
-3.4583479867531884e-05   3.211425337977113e-07   -2.192806232872936e-05
-3.4583479867531884e-05   3.211425337977113e-07   -2.192806232872936e-05
-4.7144280926733246e-05   0.0   -4.6882995711810444e-05
-4.7144280926733246e-05   0.0   -4.6882995711810444e-05
-4.7144280926733246e-05   0.0   -4.6882995711810444e-05
-4.7144280926733246e-05   0.0   -4.6882995711810444e-05
-2.10679841871903e-05   4.369654615761593e-06   -8.007083764485697e-07
-2.10679841871903e-05   4.369654615761593e-06   -8.007083764485697e-07
-2.10679841871903e-05   4.369654615761593e-06   -8.007083764485697e-07
-2.10679841871903e-05   4.369654615761593e-06   -8.007083764485697e-07
-2.05942014675929e-05   0.0   -4.4816028391268204e-05
-2.05942014675929e-05   0.0   -4.4816028391268204e-05
-2.05942014675929e-05   0.0   -4.4816028391268204e-05
-2.05942014675929e-05   0.0   -4.4816028391268204e-05
-4.7273502812163304e-05   5.355822427319056e-06   -3.5640196067089787e-06
-4.7273502812163304e-05   5.355822427319056e-06   -3.5640196067089787e-06
-4.7273502812163304e-05   5.355822427319056e-06   -3.5640196067089787e-06
-4.7273502812163304e-05   5.355822427319056e-06   -3.5640196067089787e-06
-3.386924119716303e-05   1.7224727671185592e-06   -2.3724445835588942e-05
-3.386924119716303e-05   1.7224727671185592e-06   -2.3724445835588942e-05
-3.386924119716303e-05   1.7224727671185592e-06   -2.3724445835588942e-05
-3.386924119716303e-05   1.7224727671185592e-06   -2.3724445835588942e-05
-4.7273502812163304e-05   0.0   -4.8029521847659646e-05
-4.7273502812163304e-05   0.0   -4.8029521847659646e-05
-4.7273502812163304e-05   0.0   -4.8029521847659646e-05
-4.7273502812163304e-05   0.0   -4.8029521847659646e-05
-2.05942014675929e-05   5.355822427319056e-06   -3.5052615031753705e-07
-2.05942014675929e-05   5.355822427319056e-06   -3.5052615031753705e-07
-2.05942014675929e-05   5.355822427319056e-06   -3.5052615031753705e-07
-2.05942014675929e-05   5.355822427319056e-06   -3.5052615031753705e-07
-2.0162168465861444e-05   0.0   -4.4584916035512755e-05
-2.0162168465861444e-05   0.0   -4.4584916035512755e-05
-2.0162168465861444e-05   0.0   -4.4584916035512755e-05
-2.0162168465861444e-05   0.0   -4.4584916035512755e-05
-4.724444631024779e-05   6.233010015632386e-06   -3.1875923042480966e-06
-4.724444631024779e-05   6.233010015632386e-06   -3.1875923042480966e-06
-4.724444631024779e-05   6.233010015632386e-06   -3.1875923042480966e-06
-4.724444631024779e-05   6.233010015632386e-06   -3.1875923042480966e-06
-3.371783563901236e-05   2.870504843455707e-06   -2.3714440319667982e-05
-3.371783563901236e-05   2.870504843455707e-06   -2.3714440319667982e-05
-3.371783563901236e-05   2.870504843455707e-06   -2.3714440319667982e-05
-3.371783563901236e-05   2.870504843455707e-06   -2.3714440319667982e-05
-2.190885088684252e-05   0.0   -4.2805993282879674e-05
-2.190885088684252e-05   0.0   -4.2805993282879674e-05
-2.190885088684252e-05   0.0   -4.2805993282879674e-05
-2.190885088684252e-05   0.0   -4.2805993282879674e-05
2.8327063272840264e-06   -3.9402000814887505e-07   -1.8064765975580491e-06
2.8327063272840264e-06   -3.9402000814887505e-07   -1.8064765975580491e-06
2.8327063272840264e-06   -3.9402000814887505e-07   -1.8064765975580491e-06
2.8327063272840264e-06   -3.9402000814887505e-07   -1.8064765975580491e-06
3.3711607618809357e-06   0.0   -4.3796130219141424e-05
3.3711607618809357e-06   0.0   -4.3796130219141424e-05
3.3711607618809357e-06   0.0   -4.3796130219141424e-05
3.3711607618809357e-06   0.0   -4.3796130219141424e-05
-2.10679841871903e-05   7.751212053532544e-07   -3.529294693901456e-06
-2.10679841871903e-05   7.751212053532544e-07   -3.529294693901456e-06
-2.10679841871903e-05   7.751212053532544e-07   -3.529294693901456e-06
-2.10679841871903e-05   7.751212053532544e-07   -3.529294693901456e-06
-9.26884506248077e-06   -8.251141135515817e-07   -2.223438537707435e-05
-9.26884506248077e-06   -8.251141135515817e-07   -2.223438537707435e-05
-9.26884506248077e-06   -8.251141135515817e-07   -2.223438537707435e-05
-9.26884506248077e-06   -8.251141135515817e-07   -2.223438537707435e-05
-2.10679841871903e-05   0.0   -4.426120294235353e-05
-2.10679841871903e-05   0.0   -4.426120294235353e-05
-2.10679841871903e-05   0.0   -4.426120294235353e-05
-2.10679841871903e-05   0.0   -4.426120294235353e-05
3.3711607618809417e-06   7.751212053532544e-07   -3.0642219706894942e-06
3.3711607618809417e-06   7.751212053532544e-07   -3.0642219706894942e-06
3.3711607618809417e-06   7.751212053532544e-07   -3.0642219706894942e-06
3.3711607618809417e-06   7.751212053532544e-07   -3.0642219706894942e-06
3.796636583590783e-06   0.0   -4.373318655434497e-05
3.796636583590783e-06   0.0   -4.373318655434497e-05
3.796636583590783e-06   0.0   -4.373318655434497e-05
3.796636583590783e-06   0.0   -4.373318655434497e-05
-2.0594201467592866e-05   1.8047363948719318e-06   -4.164631639295388e-06
-2.0594201467592866e-05   1.8047363948719318e-06   -4.164631639295388e-06
-2.0594201467592866e-05   1.8047363948719318e-06   -4.164631639295388e-06
-2.0594201467592866e-05   1.8047363948719318e-06   -4.164631639295388e-06
-8.635673801799754e-06   4.400136566737355e-07   -2.3276677439365033e-05
-8.635673801799754e-06   4.400136566737355e-07   -2.3276677439365033e-05
-8.635673801799754e-06   4.400136566737355e-07   -2.3276677439365033e-05
-8.635673801799754e-06   4.400136566737355e-07   -2.3276677439365033e-05
-2.05942014675929e-05   0.0   -4.4816028391268204e-05
-2.05942014675929e-05   0.0   -4.4816028391268204e-05
-2.05942014675929e-05   0.0   -4.4816028391268204e-05
-2.05942014675929e-05   0.0   -4.4816028391268204e-05
3.79663658359079e-06   1.8047363948719318e-06   -3.0817898023722396e-06
3.79663658359079e-06   1.8047363948719318e-06   -3.0817898023722396e-06
3.79663658359079e-06   1.8047363948719318e-06   -3.0817898023722396e-06
3.79663658359079e-06   1.8047363948719318e-06   -3.0817898023722396e-06
4.367877033094182e-06   0.0   -4.2786673302035694e-05
4.367877033094182e-06   0.0   -4.2786673302035694e-05
4.367877033094182e-06   0.0   -4.2786673302035694e-05
4.367877033094182e-06   0.0   -4.2786673302035694e-05
-2.0162168465861423e-05   2.997071222461697e-06   -3.7015068705867124e-06
-2.0162168465861423e-05   2.997071222461697e-06   -3.7015068705867124e-06
-2.0162168465861423e-05   2.997071222461697e-06   -3.7015068705867124e-06
-2.0162168465861423e-05   2.997071222461697e-06   -3.7015068705867124e-06
-8.113162217249343e-06   1.6911292410270274e-06   -2.2999618762746025e-05
-8.113162217249343e-06   1.6911292410270274e-06   -2.2999618762746025e-05
-8.113162217249343e-06   1.6911292410270274e-06   -2.2999618762746025e-05
-8.113162217249343e-06   1.6911292410270274e-06   -2.2999618762746025e-05
2.832706327284031e-06   0.0   -4.3042405287769e-05
2.832706327284031e-06   0.0   -4.3042405287769e-05
2.832706327284031e-06   0.0   -4.3042405287769e-05
2.832706327284031e-06   0.0   -4.3042405287769e-05
2.9692468548139635e-05   -3.482642950291035e-06   -3.657206898509104e-07
2.9692468548139635e-05   -3.482642950291035e-06   -3.657206898509104e-07
2.9692468548139635e-05   -3.482642950291035e-06   -3.657206898509104e-07
2.9692468548139635e-05   -3.482642950291035e-06   -3.657206898509104e-07
2.9749502752519275e-05   0.0   -4.537076997999229e-05
2.9749502752519275e-05   0.0   -4.537076997999229e-05
2.9749502752519275e-05   0.0   -4.537076997999229e-05
2.9749502752519275e-05   0.0   -4.537076997999229e-05
3.3711607618809476e-06   -2.624399601417867e-06   1.6777309858896566e-07
3.3711607618809476e-06   -2.624399601417867e-06   1.6777309858896566e-07
3.3711607618809476e-06   -2.624399601417867e-06   1.6777309858896566e-07
3.3711607618809476e-06   -2.624399601417867e-06   1.6777309858896566e-07
1.6291104539901655e-05   -1.9403039101860778e-06   -2.177592394618459e-05
1.6291104539901655e-05   -1.9403039101860778e-06   -2.177592394618459e-05
1.6291104539901655e-05   -1.9403039101860778e-06   -2.177592394618459e-05
1.6291104539901655e-05   -1.9403039101860778e-06   -2.177592394618459e-05
3.3711607618809476e-06   0.0   -4.379613021914157e-05
3.3711607618809476e-06   0.0   -4.379613021914157e-05
3.3711607618809476e-06   0.0   -4.379613021914157e-05
3.3711607618809476e-06   0.0   -4.379613021914157e-05
2.9749502752519275e-05   -2.624399601417867e-06   -1.4068666622617514e-06
2.9749502752519275e-05   -2.624399601417867e-06   -1.4068666622617514e-06
2.9749502752519275e-05   -2.624399601417867e-06   -1.4068666622617514e-06
2.9749502752519275e-05   -2.624399601417867e-06   -1.4068666622617514e-06
2.962574045080837e-05   0.0   -4.472292286245363e-05
2.962574045080837e-05   0.0   -4.472292286245363e-05
2.962574045080837e-05   0.0   -4.472292286245363e-05
2.962574045080837e-05   0.0   -4.472292286245363e-05
3.79663658359079e-06   -1.6495605135143028e-06   -6.846801089824242e-07
3.79663658359079e-06   -1.6495605135143028e-06   -6.846801089824242e-07
3.79663658359079e-06   -1.6495605135143028e-06   -6.846801089824242e-07
3.79663658359079e-06   -1.6495605135143028e-06   -6.846801089824242e-07
1.6498450606344657e-05   -7.723272027600431e-07   -2.238071013335807e-05
1.6498450606344657e-05   -7.723272027600431e-07   -2.238071013335807e-05
1.6498450606344657e-05   -7.723272027600431e-07   -2.238071013335807e-05
1.6498450606344657e-05   -7.723272027600431e-07   -2.238071013335807e-05
3.7966365835907865e-06   0.0   -4.373318655434501e-05
3.7966365835907865e-06   0.0   -4.373318655434501e-05
3.7966365835907865e-06   0.0   -4.373318655434501e-05
3.7966365835907865e-06   0.0   -4.373318655434501e-05
2.962574045080837e-05   -1.6495605135143028e-06   -1.6744164170910062e-06
2.962574045080837e-05   -1.6495605135143028e-06   -1.6744164170910062e-06
2.962574045080837e-05   -1.6495605135143028e-06   -1.6744164170910062e-06
2.962574045080837e-05   -1.6495605135143028e-06   -1.6744164170910062e-06
3.0203009547993078e-05   0.0   -4.299056344119692e-05
3.0203009547993078e-05   0.0   -4.299056344119692e-05
3.0203009547993078e-05   0.0   -4.299056344119692e-05
3.0203009547993078e-05   0.0   -4.299056344119692e-05
4.367877033094189e-06   -3.398168986019158e-07   2.7188088946236767e-07
4.367877033094189e-06   -3.398168986019158e-07   2.7188088946236767e-07
4.367877033094189e-06   -3.398168986019158e-07   2.7188088946236767e-07
4.367877033094189e-06   -3.398168986019158e-07   2.7188088946236767e-07
1.699982306579192e-05   6.188525942901036e-07   -2.135656419410238e-05
1.699982306579192e-05   6.188525942901036e-07   -2.135656419410238e-05
1.699982306579192e-05   6.188525942901036e-07   -2.135656419410238e-05
1.699982306579192e-05   6.188525942901036e-07   -2.135656419410238e-05
2.9692468548139635e-05   0.0   -4.5131991057943616e-05
2.9692468548139635e-05   0.0   -4.5131991057943616e-05
2.9692468548139635e-05   0.0   -4.5131991057943616e-05
2.9692468548139635e-05   0.0   -4.5131991057943616e-05
6.705738513659886e-05   -8.831333522782374e-06   1.1844069809152711e-05
6.705738513659886e-05   -8.831333522782374e-06   1.1844069809152711e-05
6.705738513659886e-05   -8.831333522782374e-06   1.1844069809152711e-05
6.705738513659886e-05   -8.831333522782374e-06   1.1844069809152711e-05
6.29832085231563e-05   0.0   -4.987786328827117e-05
6.29832085231563e-05   0.0   -4.987786328827117e-05
6.29832085231563e-05   0.0   -4.987786328827117e-05
6.29832085231563e-05   0.0   -4.987786328827117e-05
2.9749502752519275e-05   -7.511822180464786e-06   1.0018739637736093e-05
2.9749502752519275e-05   -7.511822180464786e-06   1.0018739637736093e-05
2.9749502752519275e-05   -7.511822180464786e-06   1.0018739637736093e-05
2.9749502752519275e-05   -7.511822180464786e-06   1.0018739637736093e-05
4.633783853564797e-05   -3.954893525272967e-06   -1.9762643860593478e-05
4.633783853564797e-05   -3.954893525272967e-06   -1.9762643860593478e-05
4.633783853564797e-05   -3.954893525272967e-06   -1.9762643860593478e-05
4.633783853564797e-05   -3.954893525272967e-06   -1.9762643860593478e-05
2.974950275251925e-05   0.0   -4.537076997999225e-05
2.974950275251925e-05   0.0   -4.537076997999225e-05
2.974950275251925e-05   0.0   -4.537076997999225e-05
2.974950275251925e-05   0.0   -4.537076997999225e-05
6.298320852315609e-05   -7.511822180464772e-06   5.511646329457194e-06
6.298320852315609e-05   -7.511822180464772e-06   5.511646329457194e-06
6.298320852315609e-05   -7.511822180464772e-06   5.511646329457194e-06
6.298320852315609e-05   -7.511822180464772e-06   5.511646329457194e-06
6.110609167844232e-05   0.0   -4.884091523118116e-05
6.110609167844232e-05   0.0   -4.884091523118116e-05
6.110609167844232e-05   0.0   -4.884091523118116e-05
6.110609167844232e-05   0.0   -4.884091523118116e-05
2.962574045080837e-05   -6.863320614545877e-06   7.744329183602962e-06
2.962574045080837e-05   -6.863320614545877e-06   7.744329183602962e-06
2.962574045080837e-05   -6.863320614545877e-06   7.744329183602962e-06
2.962574045080837e-05   -6.863320614545877e-06   7.744329183602962e-06
4.5427797215480775e-05   -2.8917877093240614e-06   -2.0975351833984142e-05
4.5427797215480775e-05   -2.8917877093240614e-06   -2.0975351833984142e-05
4.5427797215480775e-05   -2.8917877093240614e-06   -2.0975351833984142e-05
4.5427797215480775e-05   -2.8917877093240614e-06   -2.0975351833984142e-05
2.962574045080837e-05   0.0   -4.472292286245363e-05
2.962574045080837e-05   0.0   -4.472292286245363e-05
2.962574045080837e-05   0.0   -4.472292286245363e-05
2.962574045080837e-05   0.0   -4.472292286245363e-05
6.110609167844212e-05   -6.863320614545863e-06   3.6263368148754105e-06
6.110609167844212e-05   -6.863320614545863e-06   3.6263368148754105e-06
6.110609167844212e-05   -6.863320614545863e-06   3.6263368148754105e-06
6.110609167844212e-05   -6.863320614545863e-06   3.6263368148754105e-06
5.8309041196428315e-05   0.0   -4.618958848646464e-05
5.8309041196428315e-05   0.0   -4.618958848646464e-05
5.8309041196428315e-05   0.0   -4.618958848646464e-05
5.8309041196428315e-05   0.0   -4.618958848646464e-05
3.0203009547993078e-05   -5.331708408779656e-06   3.852822639528644e-06
3.0203009547993078e-05   -5.331708408779656e-06   3.852822639528644e-06
3.0203009547993078e-05   -5.331708408779656e-06   3.852822639528644e-06
3.0203009547993078e-05   -5.331708408779656e-06   3.852822639528644e-06
4.396739082361839e-05   -1.222221353342573e-06   -2.1553505053109108e-05
4.396739082361839e-05   -1.222221353342573e-06   -2.1553505053109108e-05
4.396739082361839e-05   -1.222221353342573e-06   -2.1553505053109108e-05
4.396739082361839e-05   -1.222221353342573e-06   -2.1553505053109108e-05
-6.555275043412718e-05   8.367793695235047e-06   -4.304596421235118e-05
-6.555275043412718e-05   8.367793695235047e-06   -4.304596421235118e-05
-6.555275043412718e-05   8.367793695235047e-06   -4.304596421235118e-05
-6.555275043412718e-05   8.367793695235047e-06   -4.304596421235118e-05