<?xml version="1.0"?> 
<VTKFile type="UnstructuredGrid"> 
   <UnstructuredGrid> 
      <Piece NumberOfPoints="6000"  NumberOfCells="1500">  
          <Points>  
             <DataArray type="Float64" NumberOfComponents="3" format="ascii">   
-500.0   0.0   0.0
-450.0   0.0   0.0
-500.0   30.0   0.0
-500.0   0.0   16.666666666666668
-450.0   0.0   0.0
-450.0   30.0   0.0
-500.0   30.0   0.0
-450.0   30.0   16.666666666666668
-500.0   0.0   16.666666666666668
-500.0   30.0   16.666666666666668
-450.0   30.0   16.666666666666668
-500.0   30.0   0.0
-500.0   0.0   16.666666666666668
-450.0   30.0   16.666666666666668
-450.0   0.0   16.666666666666668
-450.0   0.0   0.0
-500.0   0.0   16.666666666666668
-450.0   30.0   16.666666666666668
-450.0   0.0   0.0
-500.0   30.0   0.0
-500.0   0.0   16.666666666666668
-450.0   0.0   16.666666666666668
-500.0   30.0   16.666666666666668
-500.0   0.0   33.333333333333336
-450.0   0.0   16.666666666666668
-450.0   30.0   16.666666666666668
-500.0   30.0   16.666666666666668
-450.0   30.0   33.333333333333336
-500.0   0.0   33.333333333333336
-500.0   30.0   33.333333333333336
-450.0   30.0   33.333333333333336
-500.0   30.0   16.666666666666668
-500.0   0.0   33.333333333333336
-450.0   30.0   33.333333333333336
-450.0   0.0   33.333333333333336
-450.0   0.0   16.666666666666668
-500.0   0.0   33.333333333333336
-450.0   30.0   33.333333333333336
-450.0   0.0   16.666666666666668
-500.0   30.0   16.666666666666668
-500.0   0.0   33.333333333333336
-450.0   0.0   33.333333333333336
-500.0   30.0   33.333333333333336
-500.0   0.0   50.0
-450.0   0.0   33.333333333333336
-450.0   30.0   33.333333333333336
-500.0   30.0   33.333333333333336
-450.0   30.0   50.0
-500.0   0.0   50.0
-500.0   30.0   50.0
-450.0   30.0   50.0
-500.0   30.0   33.333333333333336
-500.0   0.0   50.0
-450.0   30.0   50.0
-450.0   0.0   50.0
-450.0   0.0   33.333333333333336
-500.0   0.0   50.0
-450.0   30.0   50.0
-450.0   0.0   33.333333333333336
-500.0   30.0   33.333333333333336
-500.0   30.0   0.0
-450.0   30.0   0.0
-500.0   60.0   0.0
-500.0   30.0   16.666666666666668
-450.0   30.0   0.0
-450.0   60.0   0.0
-500.0   60.0   0.0
-450.0   60.0   16.666666666666668
-500.0   30.0   16.666666666666668
-500.0   60.0   16.666666666666668
-450.0   60.0   16.666666666666668
-500.0   60.0   0.0
-500.0   30.0   16.666666666666668
-450.0   60.0   16.666666666666668
-450.0   30.0   16.666666666666668
-450.0   30.0   0.0
-500.0   30.0   16.666666666666668
-450.0   60.0   16.666666666666668
-450.0   30.0   0.0
-500.0   60.0   0.0
-500.0   30.0   16.666666666666668
-450.0   30.0   16.666666666666668
-500.0   60.0   16.666666666666668
-500.0   30.0   33.333333333333336
-450.0   30.0   16.666666666666668
-450.0   60.0   16.666666666666668
-500.0   60.0   16.666666666666668
-450.0   60.0   33.333333333333336
-500.0   30.0   33.333333333333336
-500.0   60.0   33.333333333333336
-450.0   60.0   33.333333333333336
-500.0   60.0   16.666666666666668
-500.0   30.0   33.333333333333336
-450.0   60.0   33.333333333333336
-450.0   30.0   33.333333333333336
-450.0   30.0   16.666666666666668
-500.0   30.0   33.333333333333336
-450.0   60.0   33.333333333333336
-450.0   30.0   16.666666666666668
-500.0   60.0   16.666666666666668
-500.0   30.0   33.333333333333336
-450.0   30.0   33.333333333333336
-500.0   60.0   33.333333333333336
-500.0   30.0   50.0
-450.0   30.0   33.333333333333336
-450.0   60.0   33.333333333333336
-500.0   60.0   33.333333333333336
-450.0   60.0   50.0
-500.0   30.0   50.0
-500.0   60.0   50.0
-450.0   60.0   50.0
-500.0   60.0   33.333333333333336
-500.0   30.0   50.0
-450.0   60.0   50.0
-450.0   30.0   50.0
-450.0   30.0   33.333333333333336
-500.0   30.0   50.0
-450.0   60.0   50.0
-450.0   30.0   33.333333333333336
-500.0   60.0   33.333333333333336
-500.0   60.0   0.0
-450.0   60.0   0.0
-500.0   90.0   0.0
-500.0   60.0   16.666666666666668
-450.0   60.0   0.0
-450.0   90.0   0.0
-500.0   90.0   0.0
-450.0   90.0   16.666666666666668
-500.0   60.0   16.666666666666668
-500.0   90.0   16.666666666666668
-450.0   90.0   16.666666666666668
-500.0   90.0   0.0
-500.0   60.0   16.666666666666668
-450.0   90.0   16.666666666666668
-450.0   60.0   16.666666666666668
-450.0   60.0   0.0
-500.0   60.0   16.666666666666668
-450.0   90.0   16.666666666666668
-450.0   60.0   0.0
-500.0   90.0   0.0
-500.0   60.0   16.666666666666668
-450.0   60.0   16.666666666666668
-500.0   90.0   16.666666666666668
-500.0   60.0   33.333333333333336
-450.0   60.0   16.666666666666668
-450.0   90.0   16.666666666666668
-500.0   90.0   16.666666666666668
-450.0   90.0   33.333333333333336
-500.0   60.0   33.333333333333336
-500.0   90.0   33.333333333333336
-450.0   90.0   33.333333333333336
-500.0   90.0   16.666666666666668
-500.0   60.0   33.333333333333336
-450.0   90.0   33.333333333333336
-450.0   60.0   33.333333333333336
-450.0   60.0   16.666666666666668
-500.0   60.0   33.333333333333336
-450.0   90.0   33.333333333333336
-450.0   60.0   16.666666666666668
-500.0   90.0   16.666666666666668
-500.0   60.0   33.333333333333336
-450.0   60.0   33.333333333333336
-500.0   90.0   33.333333333333336
-500.0   60.0   50.0
-450.0   60.0   33.333333333333336
-450.0   90.0   33.333333333333336
-500.0   90.0   33.333333333333336
-450.0   90.0   50.0
-500.0   60.0   50.0
-500.0   90.0   50.0
-450.0   90.0   50.0
-500.0   90.0   33.333333333333336
-500.0   60.0   50.0
-450.0   90.0   50.0
-450.0   60.0   50.0
-450.0   60.0   33.333333333333336
-500.0   60.0   50.0
-450.0   90.0   50.0
-450.0   60.0   33.333333333333336
-500.0   90.0   33.333333333333336
-500.0   90.0   0.0
-450.0   90.0   0.0
-500.0   120.0   0.0
-500.0   90.0   16.666666666666668
-450.0   90.0   0.0
-450.0   120.0   0.0
-500.0   120.0   0.0
-450.0   120.0   16.666666666666668
-500.0   90.0   16.666666666666668
-500.0   120.0   16.666666666666668
-450.0   120.0   16.666666666666668
-500.0   120.0   0.0
-500.0   90.0   16.666666666666668
-450.0   120.0   16.666666666666668
-450.0   90.0   16.666666666666668
-450.0   90.0   0.0
-500.0   90.0   16.666666666666668
-450.0   120.0   16.666666666666668
-450.0   90.0   0.0
-500.0   120.0   0.0
-500.0   90.0   16.666666666666668
-450.0   90.0   16.666666666666668
-500.0   120.0   16.666666666666668
-500.0   90.0   33.333333333333336
-450.0   90.0   16.666666666666668
-450.0   120.0   16.666666666666668
-500.0   120.0   16.666666666666668
-450.0   120.0   33.333333333333336
-500.0   90.0   33.333333333333336
-500.0   120.0   33.333333333333336
-450.0   120.0   33.333333333333336
-500.0   120.0   16.666666666666668
-500.0   90.0   33.333333333333336
-450.0   120.0   33.333333333333336
-450.0   90.0   33.333333333333336
-450.0   90.0   16.666666666666668
-500.0   90.0   33.333333333333336
-450.0   120.0   33.333333333333336
-450.0   90.0   16.666666666666668
-500.0   120.0   16.666666666666668
-500.0   90.0   33.333333333333336
-450.0   90.0   33.333333333333336
-500.0   120.0   33.333333333333336
-500.0   90.0   50.0
-450.0   90.0   33.333333333333336
-450.0   120.0   33.333333333333336
-500.0   120.0   33.333333333333336
-450.0   120.0   50.0
-500.0   90.0   50.0
-500.0   120.0   50.0
-450.0   120.0   50.0
-500.0   120.0   33.333333333333336
-500.0   90.0   50.0
-450.0   120.0   50.0
-450.0   90.0   50.0
-450.0   90.0   33.333333333333336
-500.0   90.0   50.0
-450.0   120.0   50.0
-450.0   90.0   33.333333333333336
-500.0   120.0   33.333333333333336
-500.0   120.0   0.0
-450.0   120.0   0.0
-500.0   150.0   0.0
-500.0   120.0   16.666666666666668
-450.0   120.0   0.0
-450.0   150.0   0.0
-500.0   150.0   0.0
-450.0   150.0   16.666666666666668
-500.0   120.0   16.666666666666668
-500.0   150.0   16.666666666666668
-450.0   150.0   16.666666666666668
-500.0   150.0   0.0
-500.0   120.0   16.666666666666668
-450.0   150.0   16.666666666666668
-450.0   120.0   16.666666666666668
-450.0   120.0   0.0
-500.0   120.0   16.666666666666668
-450.0   150.0   16.666666666666668
-450.0   120.0   0.0
-500.0   150.0   0.0
-500.0   120.0   16.666666666666668
-450.0   120.0   16.666666666666668
-500.0   150.0   16.666666666666668
-500.0   120.0   33.333333333333336
-450.0   120.0   16.666666666666668
-450.0   150.0   16.666666666666668
-500.0   150.0   16.666666666666668
-450.0   150.0   33.333333333333336
-500.0   120.0   33.333333333333336
-500.0   150.0   33.333333333333336
-450.0   150.0   33.333333333333336
-500.0   150.0   16.666666666666668
-500.0   120.0   33.333333333333336
-450.0   150.0   33.333333333333336
-450.0   120.0   33.333333333333336
-450.0   120.0   16.666666666666668
-500.0   120.0   33.333333333333336
-450.0   150.0   33.333333333333336
-450.0   120.0   16.666666666666668
-500.0   150.0   16.666666666666668
-500.0   120.0   33.333333333333336
-450.0   120.0   33.333333333333336
-500.0   150.0   33.333333333333336
-500.0   120.0   50.0
-450.0   120.0   33.333333333333336
-450.0   150.0   33.333333333333336
-500.0   150.0   33.333333333333336
-450.0   150.0   50.0
-500.0   120.0   50.0
-500.0   150.0   50.0
-450.0   150.0   50.0
-500.0   150.0   33.333333333333336
-500.0   120.0   50.0
-450.0   150.0   50.0
-450.0   120.0   50.0
-450.0   120.0   33.333333333333336
-500.0   120.0   50.0
-450.0   150.0   50.0
-450.0   120.0   33.333333333333336
-500.0   150.0   33.333333333333336
-450.0   0.0   0.0
-400.0   0.0   0.0
-450.0   30.0   0.0
-450.0   0.0   16.666666666666668
-400.0   0.0   0.0
-400.0   30.0   0.0
-450.0   30.0   0.0
-400.0   30.0   16.666666666666668
-450.0   0.0   16.666666666666668
-450.0   30.0   16.666666666666668
-400.0   30.0   16.666666666666668
-450.0   30.0   0.0
-450.0   0.0   16.666666666666668
-400.0   30.0   16.666666666666668
-400.0   0.0   16.666666666666668
-400.0   0.0   0.0
-450.0   0.0   16.666666666666668
-400.0   30.0   16.666666666666668
-400.0   0.0   0.0
-450.0   30.0   0.0
-450.0   0.0   16.666666666666668
-400.0   0.0   16.666666666666668
-450.0   30.0   16.666666666666668
[...]
          <PointData>  
             <DataArray type="Float64" NumberOfComponents="3" Name="Strains" format="ascii">   
-0.00012566627725337908   0.0   -8.238872985365861e-05
-0.00012566627725337908   0.0   -8.238872985365861e-05
-0.00012566627725337908   0.0   -8.238872985365861e-05
-0.00012566627725337908   0.0   -8.238872985365861e-05
-7.997242082078042e-05   1.3932860892949974e-05   2.1274140697756614e-06
-7.997242082078042e-05   1.3932860892949974e-05   2.1274140697756614e-06
-7.997242082078042e-05   1.3932860892949974e-05   2.1274140697756614e-06
-7.997242082078042e-05   1.3932860892949974e-05   2.1274140697756614e-06
-7.839695842424467e-05   0.0   -7.774734525313736e-05
-7.839695842424467e-05   0.0   -7.774734525313736e-05
-7.839695842424467e-05   0.0   -7.774734525313736e-05
-7.839695842424467e-05   0.0   -7.774734525313736e-05
-0.00013152329092700832   1.671468108232349e-05   7.677336020750166e-07
-0.00013152329092700832   1.671468108232349e-05   7.677336020750166e-07
-0.00013152329092700832   1.671468108232349e-05   7.677336020750166e-07
-0.00013152329092700832   1.671468108232349e-05   7.677336020750166e-07
-0.0001020316178388117   3.8678205004343685e-06   -4.067693852911921e-05
-0.0001020316178388117   3.8678205004343685e-06   -4.067693852911921e-05
-0.0001020316178388117   3.8678205004343685e-06   -4.067693852911921e-05
-0.0001020316178388117   3.8678205004343685e-06   -4.067693852911921e-05
-0.00013152329092700857   0.0   -8.777615390253147e-05
-0.00013152329092700857   0.0   -8.777615390253147e-05
-0.00013152329092700857   0.0   -8.777615390253147e-05
-0.00013152329092700857   0.0   -8.777615390253147e-05
-7.839695842424467e-05   1.6714681082323517e-05   1.0796542251469105e-05
-7.839695842424467e-05   1.6714681082323517e-05   1.0796542251469105e-05
-7.839695842424467e-05   1.6714681082323517e-05   1.0796542251469105e-05
-7.839695842424467e-05   1.6714681082323517e-05   1.0796542251469105e-05
-7.862468381293002e-05   0.0   -7.965211219230105e-05
-7.862468381293002e-05   0.0   -7.965211219230105e-05
-7.862468381293002e-05   0.0   -7.965211219230105e-05
-7.862468381293002e-05   0.0   -7.965211219230105e-05
-0.00013563965890356884   1.7905773259718245e-05   4.629382336266406e-06
-0.00013563965890356884   1.7905773259718245e-05   4.629382336266406e-06
-0.00013563965890356884   1.7905773259718245e-05   4.629382336266406e-06
-0.00013563965890356884   1.7905773259718245e-05   4.629382336266406e-06
-0.00010507398736996911   6.7700347585253405e-06   -3.963196045235071e-05
-0.00010507398736996911   6.7700347585253405e-06   -3.963196045235071e-05
-0.00010507398736996911   6.7700347585253405e-06   -3.963196045235071e-05
-0.00010507398736996911   6.7700347585253405e-06   -3.963196045235071e-05
-0.00013563965890356908   0.0   -9.039557614813202e-05
-0.00013563965890356908   0.0   -9.039557614813202e-05
-0.00013563965890356908   0.0   -9.039557614813202e-05
-0.00013563965890356908   0.0   -9.039557614813202e-05
-7.862468381293002e-05   1.7905773259718245e-05   1.5372846292097396e-05
-7.862468381293002e-05   1.7905773259718245e-05   1.5372846292097396e-05
-7.862468381293002e-05   1.7905773259718245e-05   1.5372846292097396e-05
-7.862468381293002e-05   1.7905773259718245e-05   1.5372846292097396e-05
-7.859083316390495e-05   0.0   -8.014051551688213e-05
-7.859083316390495e-05   0.0   -8.014051551688213e-05
-7.859083316390495e-05   0.0   -8.014051551688213e-05
-7.859083316390495e-05   0.0   -8.014051551688213e-05
-0.00014450086792640492   2.0393697999184824e-05   1.747332362110726e-05
-0.00014450086792640492   2.0393697999184824e-05   1.747332362110726e-05
-0.00014450086792640492   2.0393697999184824e-05   1.747332362110726e-05
-0.00014450086792640492   2.0393697999184824e-05   1.747332362110726e-05
-0.00010711524603373683   8.545883859374897e-06   -3.772735771612019e-05
-0.00010711524603373683   8.545883859374897e-06   -3.772735771612019e-05
-0.00010711524603373683   8.545883859374897e-06   -3.772735771612019e-05
-0.00010711524603373683   8.545883859374897e-06   -3.772735771612019e-05
-7.997242082078055e-05   0.0   -7.40290133178886e-05
-7.997242082078055e-05   0.0   -7.40290133178886e-05
-7.997242082078055e-05   0.0   -7.40290133178886e-05
-7.997242082078055e-05   0.0   -7.40290133178886e-05
-3.641220336714357e-05   5.112234174995057e-06   1.6386896098366898e-06
-3.641220336714357e-05   5.112234174995057e-06   1.6386896098366898e-06
-3.641220336714357e-05   5.112234174995057e-06   1.6386896098366898e-06
-3.641220336714357e-05   5.112234174995057e-06   1.6386896098366898e-06
-3.5027205958291656e-05   0.0   -7.338266513899008e-05
-3.5027205958291656e-05   0.0   -7.338266513899008e-05
-3.5027205958291656e-05   0.0   -7.338266513899008e-05
-3.5027205958291656e-05   0.0   -7.338266513899008e-05
-7.839695842424467e-05   7.274466856912136e-06   -5.464424476549017e-06
-7.839695842424467e-05   7.274466856912136e-06   -5.464424476549017e-06
-7.839695842424467e-05   7.274466856912136e-06   -5.464424476549017e-06
-7.839695842424467e-05   7.274466856912136e-06   -5.464424476549017e-06
-5.749981338953601e-05   5.386234824154363e-07   -3.625149350969851e-05
-5.749981338953601e-05   5.386234824154363e-07   -3.625149350969851e-05
-5.749981338953601e-05   5.386234824154363e-07   -3.625149350969851e-05
-5.749981338953601e-05   5.386234824154363e-07   -3.625149350969851e-05
-7.83969584242446e-05   0.0   -7.774734525313729e-05
-7.83969584242446e-05   0.0   -7.774734525313729e-05
-7.83969584242446e-05   0.0   -7.774734525313729e-05
-7.83969584242446e-05   0.0   -7.774734525313729e-05
-3.5027205958291656e-05   7.274466856912136e-06   -1.099744362401738e-06
-3.5027205958291656e-05   7.274466856912136e-06   -1.099744362401738e-06
-3.5027205958291656e-05   7.274466856912136e-06   -1.099744362401738e-06
-3.5027205958291656e-05   7.274466856912136e-06   -1.099744362401738e-06
-3.425205980279793e-05   0.0   -7.430518708936538e-05
-3.425205980279793e-05   0.0   -7.430518708936538e-05
-3.425205980279793e-05   0.0   -7.430518708936538e-05
-3.425205980279793e-05   0.0   -7.430518708936538e-05
-7.862468381293002e-05   8.911541838226125e-06   -5.697738842080924e-06
-7.862468381293002e-05   8.911541838226125e-06   -5.697738842080924e-06
-7.862468381293002e-05   8.911541838226125e-06   -5.697738842080924e-06
-7.862468381293002e-05   8.911541838226125e-06   -5.697738842080924e-06
-5.632450911352119e-05   2.8684651364766444e-06   -3.923885065337897e-05
-5.632450911352119e-05   2.8684651364766444e-06   -3.923885065337897e-05
-5.632450911352119e-05   2.8684651364766444e-06   -3.923885065337897e-05
-5.632450911352119e-05   2.8684651364766444e-06   -3.923885065337897e-05
-7.862468381293002e-05   0.0   -7.965211219230105e-05
-7.862468381293002e-05   0.0   -7.965211219230105e-05
-7.862468381293002e-05   0.0   -7.965211219230105e-05
-7.862468381293002e-05   0.0   -7.965211219230105e-05
-3.425205980279793e-05   8.911541838226125e-06   -3.5081373914524843e-07
-3.425205980279793e-05   8.911541838226125e-06   -3.5081373914524843e-07
-3.425205980279793e-05   8.911541838226125e-06   -3.5081373914524843e-07
-3.425205980279793e-05   8.911541838226125e-06   -3.5081373914524843e-07
-3.3547324096916035e-05   0.0   -7.391968799240574e-05
-3.3547324096916035e-05   0.0   -7.391968799240574e-05
-3.3547324096916035e-05   0.0   -7.391968799240574e-05
-3.3547324096916035e-05   0.0   -7.391968799240574e-05
-7.859083316390475e-05   1.036804587412719e-05   -5.068000405233897e-06
-7.859083316390475e-05   1.036804587412719e-05   -5.068000405233897e-06
-7.859083316390475e-05   1.036804587412719e-05   -5.068000405233897e-06
-7.859083316390475e-05   1.036804587412719e-05   -5.068000405233897e-06
-5.608600395492301e-05   4.777020166579383e-06   -3.922143366234174e-05
-5.608600395492301e-05   4.777020166579383e-06   -3.922143366234174e-05
-5.608600395492301e-05   4.777020166579383e-06   -3.922143366234174e-05
-5.608600395492301e-05   4.777020166579383e-06   -3.922143366234174e-05
-3.641220336714363e-05   0.0   -7.096167281289157e-05
-3.641220336714363e-05   0.0   -7.096167281289157e-05
-3.641220336714363e-05   0.0   -7.096167281289157e-05
-3.641220336714363e-05   0.0   -7.096167281289157e-05
4.749687099940889e-06   -6.532899665072486e-07   -2.7504960143216543e-06
4.749687099940889e-06   -6.532899665072486e-07   -2.7504960143216543e-06
4.749687099940889e-06   -6.532899665072486e-07   -2.7504960143216543e-06
4.749687099940889e-06   -6.532899665072486e-07   -2.7504960143216543e-06
5.6306543159248885e-06   0.0   -7.260930740040606e-05
5.6306543159248885e-06   0.0   -7.260930740040606e-05
5.6306543159248885e-06   0.0   -7.260930740040606e-05
5.6306543159248885e-06   0.0   -7.260930740040606e-05
-3.5027205958291656e-05   1.2889295643062716e-06   -5.6195646819624866e-06
-3.5027205958291656e-05   1.2889295643062716e-06   -5.6195646819624866e-06
-3.5027205958291656e-05   1.2889295643062716e-06   -5.6195646819624866e-06
-3.5027205958291656e-05   1.2889295643062716e-06   -5.6195646819624866e-06
-1.5390774525609335e-05   -1.3730288229289427e-06   -3.67497753707584e-05
-1.5390774525609335e-05   -1.3730288229289427e-06   -3.67497753707584e-05
-1.5390774525609335e-05   -1.3730288229289427e-06   -3.67497753707584e-05
-1.5390774525609335e-05   -1.3730288229289427e-06   -3.67497753707584e-05
-3.5027205958291656e-05   0.0   -7.338266513899008e-05
-3.5027205958291656e-05   0.0   -7.338266513899008e-05
-3.5027205958291656e-05   0.0   -7.338266513899008e-05
-3.5027205958291656e-05   0.0   -7.338266513899008e-05
5.630654315924898e-06   1.2889295643062851e-06   -4.8462069433786955e-06
5.630654315924898e-06   1.2889295643062851e-06   -4.8462069433786955e-06
5.630654315924898e-06   1.2889295643062851e-06   -4.8462069433786955e-06
5.630654315924898e-06   1.2889295643062851e-06   -4.8462069433786955e-06
6.325092892861848e-06   0.0   -7.25059381348304e-05
6.325092892861848e-06   0.0   -7.25059381348304e-05
6.325092892861848e-06   0.0   -7.25059381348304e-05
6.325092892861848e-06   0.0   -7.25059381348304e-05
-3.4252059802797876e-05   2.9987482575580878e-06   -6.676599263265721e-06
-3.4252059802797876e-05   2.9987482575580878e-06   -6.676599263265721e-06
-3.4252059802797876e-05   2.9987482575580878e-06   -6.676599263265721e-06
-3.4252059802797876e-05   2.9987482575580878e-06   -6.676599263265721e-06
-1.43510565327149e-05   7.306058367996337e-07   -3.848405259428234e-05
-1.43510565327149e-05   7.306058367996337e-07   -3.848405259428234e-05
-1.43510565327149e-05   7.306058367996337e-07   -3.848405259428234e-05
-1.43510565327149e-05   7.306058367996337e-07   -3.848405259428234e-05
-3.425205980279793e-05   0.0   -7.430518708936538e-05
-3.425205980279793e-05   0.0   -7.430518708936538e-05
-3.425205980279793e-05   0.0   -7.430518708936538e-05
-3.425205980279793e-05   0.0   -7.430518708936538e-05
6.325092892861859e-06   2.9987482575581013e-06   -4.877350308730877e-06
6.325092892861859e-06   2.9987482575581013e-06   -4.877350308730877e-06
6.325092892861859e-06   2.9987482575581013e-06   -4.877350308730877e-06
6.325092892861859e-06   2.9987482575581013e-06   -4.877350308730877e-06
7.261664879810335e-06   0.0   -7.093195895801848e-05
7.261664879810335e-06   0.0   -7.093195895801848e-05
7.261664879810335e-06   0.0   -7.093195895801848e-05
7.261664879810335e-06   0.0   -7.093195895801848e-05
-3.354732409691601e-05   4.979548390645334e-06   -5.90470636452845e-06
-3.354732409691601e-05   4.979548390645334e-06   -5.90470636452845e-06
-3.354732409691601e-05   4.979548390645334e-06   -5.90470636452845e-06
-3.354732409691601e-05   4.979548390645334e-06   -5.90470636452845e-06
-1.3495197461493771e-05   2.811023442788974e-06   -3.802380245485166e-05
-1.3495197461493771e-05   2.811023442788974e-06   -3.802380245485166e-05
-1.3495197461493771e-05   2.811023442788974e-06   -3.802380245485166e-05
-1.3495197461493771e-05   2.811023442788974e-06   -3.802380245485166e-05
4.749687099940897e-06   0.0   -7.135364679279592e-05
4.749687099940897e-06   0.0   -7.135364679279592e-05
4.749687099940897e-06   0.0   -7.135364679279592e-05
4.749687099940897e-06   0.0   -7.135364679279592e-05
4.942465396976446e-05   -5.7969721387490135e-06   -3.7355195967266107e-07
4.942465396976446e-05   -5.7969721387490135e-06   -3.7355195967266107e-07
4.942465396976446e-05   -5.7969721387490135e-06   -3.7355195967266107e-07
4.942465396976446e-05   -5.7969721387490135e-06   -3.7355195967266107e-07
4.950345281438091e-05   0.0   -7.523251895698408e-05
4.950345281438091e-05   0.0   -7.523251895698408e-05
4.950345281438091e-05   0.0   -7.523251895698408e-05
4.950345281438091e-05   0.0   -7.523251895698408e-05
5.630654315924908e-06   -4.372019260962947e-06   5.120234303536871e-07
5.630654315924908e-06   -4.372019260962947e-06   5.120234303536871e-07
5.630654315924908e-06   -4.372019260962947e-06   5.120234303536871e-07
5.630654315924908e-06   -4.372019260962947e-06   5.120234303536871e-07
2.7126569957160906e-05   -3.232393470156785e-06   -3.599827811285663e-05
2.7126569957160906e-05   -3.232393470156785e-06   -3.599827811285663e-05
2.7126569957160906e-05   -3.232393470156785e-06   -3.599827811285663e-05
2.7126569957160906e-05   -3.232393470156785e-06   -3.599827811285663e-05
5.630654315924908e-06   0.0   -7.260930740040631e-05
5.630654315924908e-06   0.0   -7.260930740040631e-05
5.630654315924908e-06   0.0   -7.260930740040631e-05
5.630654315924908e-06   0.0   -7.260930740040631e-05
4.950345281438091e-05   -4.372019260962947e-06   -2.111188126224079e-06
4.950345281438091e-05   -4.372019260962947e-06   -2.111188126224079e-06
4.950345281438091e-05   -4.372019260962947e-06   -2.111188126224079e-06
4.950345281438091e-05   -4.372019260962947e-06   -2.111188126224079e-06
4.9283606127484e-05   0.0   -7.415816189459291e-05
4.9283606127484e-05   0.0   -7.415816189459291e-05
4.9283606127484e-05   0.0   -7.415816189459291e-05
4.9283606127484e-05   0.0   -7.415816189459291e-05
6.325092892861859e-06   -2.753706266270665e-06   -9.084160771269663e-07
6.325092892861859e-06   -2.753706266270665e-06   -9.084160771269663e-07
6.325092892861859e-06   -2.753706266270665e-06   -9.084160771269663e-07
6.325092892861859e-06   -2.753706266270665e-06   -9.084160771269663e-07
2.7457130221704454e-05   -1.2907120784888483e-06   -3.7006274804533666e-05
2.7457130221704454e-05   -1.2907120784888483e-06   -3.7006274804533666e-05
2.7457130221704454e-05   -1.2907120784888483e-06   -3.7006274804533666e-05
2.7457130221704454e-05   -1.2907120784888483e-06   -3.7006274804533666e-05
6.325092892861853e-06   0.0   -7.250593813483045e-05
6.325092892861853e-06   0.0   -7.250593813483045e-05
6.325092892861853e-06   0.0   -7.250593813483045e-05
6.325092892861853e-06   0.0   -7.250593813483045e-05
4.9283606127484e-05   -2.753706266270665e-06   -2.5606398368893657e-06
4.9283606127484e-05   -2.753706266270665e-06   -2.5606398368893657e-06
4.9283606127484e-05   -2.753706266270665e-06   -2.5606398368893657e-06
4.9283606127484e-05   -2.753706266270665e-06   -2.5606398368893657e-06
5.02305571363168e-05   0.0   -7.127910561239919e-05
5.02305571363168e-05   0.0   -7.127910561239919e-05
5.02305571363168e-05   0.0   -7.127910561239919e-05
5.02305571363168e-05   0.0   -7.127910561239919e-05
7.2616648798103476e-06   -5.785777573009791e-07   6.828614694921394e-07
7.2616648798103476e-06   -5.785777573009791e-07   6.828614694921394e-07
7.2616648798103476e-06   -5.785777573009791e-07   6.828614694921394e-07
7.2616648798103476e-06   -5.785777573009791e-07   6.828614694921394e-07
2.8277825014589306e-05   1.0223604353594404e-06   -3.5304635004069014e-05
2.8277825014589306e-05   1.0223604353594404e-06   -3.5304635004069014e-05
2.8277825014589306e-05   1.0223604353594404e-06   -3.5304635004069014e-05
2.8277825014589306e-05   1.0223604353594404e-06   -3.5304635004069014e-05
4.942465396976446e-05   0.0   -7.483183007604534e-05
4.942465396976446e-05   0.0   -7.483183007604534e-05
4.942465396976446e-05   0.0   -7.483183007604534e-05
4.942465396976446e-05   0.0   -7.483183007604534e-05
0.00011153517017765475   -1.4689184772362552e-05   1.987218607368821e-05
0.00011153517017765475   -1.4689184772362552e-05   1.987218607368821e-05
0.00011153517017765475   -1.4689184772362552e-05   1.987218607368821e-05
0.00011153517017765475   -1.4689184772362552e-05   1.987218607368821e-05
0.00010473772147074457   0.0   -8.273429378856173e-05
0.00010473772147074457   0.0   -8.273429378856173e-05
0.00010473772147074457   0.0   -8.273429378856173e-05
0.00010473772147074457   0.0   -8.273429378856173e-05
4.950345281438091e-05   -1.25029580526294e-05   1.682459547028868e-05
4.950345281438091e-05   -1.25029580526294e-05   1.682459547028868e-05
4.950345281438091e-05   -1.25029580526294e-05   1.682459547028868e-05
4.950345281438091e-05   -1.25029580526294e-05   1.682459547028868e-05
7.708118772025452e-05   -6.585386427096992e-06   -3.2688839014820086e-05
7.708118772025452e-05   -6.585386427096992e-06   -3.2688839014820086e-05
7.708118772025452e-05   -6.585386427096992e-06   -3.2688839014820086e-05
7.708118772025452e-05   -6.585386427096992e-06   -3.2688839014820086e-05
4.9503452814380864e-05   0.0   -7.523251895698401e-05
4.9503452814380864e-05   0.0   -7.523251895698401e-05
4.9503452814380864e-05   0.0   -7.523251895698401e-05
4.9503452814380864e-05   0.0   -7.523251895698401e-05
0.0001047377214707442   -1.2502958052629373e-05   9.322820638710987e-06
0.0001047377214707442   -1.2502958052629373e-05   9.322820638710987e-06
0.0001047377214707442   -1.2502958052629373e-05   9.322820638710987e-06
0.0001047377214707442   -1.2502958052629373e-05   9.322820638710987e-06
0.00010159960908629946   0.0   -8.101411670467898e-05
0.00010159960908629946   0.0   -8.101411670467898e-05
0.00010159960908629946   0.0   -8.101411670467898e-05
0.00010159960908629946   0.0   -8.101411670467898e-05
4.9283606127484e-05   -1.142659135014345e-05   1.3035176370099514e-05
4.9283606127484e-05   -1.142659135014345e-05   1.3035176370099514e-05
4.9283606127484e-05   -1.142659135014345e-05   1.3035176370099514e-05
4.9283606127484e-05   -1.142659135014345e-05   1.3035176370099514e-05
7.555153095034015e-05   -4.8179981230791065e-06   -3.470985427089932e-05
7.555153095034015e-05   -4.8179981230791065e-06   -3.470985427089932e-05
7.555153095034015e-05   -4.8179981230791065e-06   -3.470985427089932e-05
7.555153095034015e-05   -4.8179981230791065e-06   -3.470985427089932e-05
4.9283606127484e-05   0.0   -7.415816189459291e-05
4.9283606127484e-05   0.0   -7.415816189459291e-05
4.9283606127484e-05   0.0   -7.415816189459291e-05
4.9283606127484e-05   0.0   -7.415816189459291e-05
0.00010159960908629911   -1.1426591350143395e-05   6.179221560013401e-06
0.00010159960908629911   -1.1426591350143395e-05   6.179221560013401e-06
0.00010159960908629911   -1.1426591350143395e-05   6.179221560013401e-06
0.00010159960908629911   -1.1426591350143395e-05   6.179221560013401e-06
9.693331556675776e-05   0.0   -7.661110353883564e-05
9.693331556675776e-05   0.0   -7.661110353883564e-05
9.693331556675776e-05   0.0   -7.661110353883564e-05
9.693331556675776e-05   0.0   -7.661110353883564e-05
5.02305571363168e-05   -8.886663210727651e-06   6.558825105002674e-06
5.02305571363168e-05   -8.886663210727651e-06   6.558825105002674e-06
5.02305571363168e-05   -8.886663210727651e-06   6.558825105002674e-06
5.02305571363168e-05   -8.886663210727651e-06   6.558825105002674e-06
7.310846084712097e-05   -2.0441180368690527e-06   -3.5676541517319384e-05
7.310846084712097e-05   -2.0441180368690527e-06   -3.5676541517319384e-05
7.310846084712097e-05   -2.0441180368690527e-06   -3.5676541517319384e-05
7.310846084712097e-05   -2.0441180368690527e-06   -3.5676541517319384e-05
-0.00010909722178394944   1.3932860892949974e-05   -7.15244972958159e-05
-0.00010909722178394944   1.3932860892949974e-05   -7.15244972958159e-05
-0.00010909722178394944   1.3932860892949974e-05   -7.15244972958159e-05
-0.00010909722178394944   1.3932860892949974e-05   -7.15244972958159e-05
-6.987013748204507e-05   1.2533449570726034e-05   -6.98567025264298e-06